<LesHouchesEvents>

<!--
FILE GENERATED BY GLUESHOWER

Paramters:

Nc = 3
hadronisation_scale_multiplier_c = 1
thermal_probability_distribution_temperature_multiplier_d = 1
N_glueball_species_to_consider = 12
gluon_plasma_option = False
centre_of_mass_energy_gev = 100
zero_pp_glueball_mass_gev = 10
number_of_events = 100
unconstrained_evolution = True
max_veto_counter = 100
final_states_only = False
-->

<init>
25 0 1.000000e+02 0.000000e+00 0 0 247000 247000 -4 1
7.624840e-06 1.381213e-08 7.624840e-06 1
</init>
<event>
 3      1 1.0000000e+00 -1.00000000e+00 -1.00000000e+00 -1.00000000e+00
       25 -1    0    0    0    0 +0.0000000000e+00 +0.0000000000e+00 +0.0000000000e+00 1.0000000000e+02 1.0000000000e+02 0.0000e+00 0.0000e+00
500000002  1    0    0    0    0 +0.0000000000e+00 +0.0000000000e+00 +4.8441801724e+01 5.0536800000e+01 1.4400000000e+01 0.0000e+00 0.0000e+00
500000001  1    0    0    0    0 +0.0000000000e+00 +0.0000000000e+00 -4.8441801724e+01 4.9463200000e+01 1.0000000000e+01 0.0000e+00 0.0000e+00
</event>
<event>
 3      1 1.0000000e+00 -1.00000000e+00 -1.00000000e+00 -1.00000000e+00
       25 -1    0    0    0    0 +0.0000000000e+00 +0.0000000000e+00 +0.0000000000e+00 1.0000000000e+02 1.0000000000e+02 0.0000e+00 0.0000e+00
500000001  1    0    0    0    0 +0.0000000000e+00 +0.0000000000e+00 +4.8989794856e+01 5.0000000000e+01 1.0000000000e+01 0.0000e+00 0.0000e+00
500000001  1    0    0    0    0 +0.0000000000e+00 +0.0000000000e+00 -4.8989794856e+01 5.0000000000e+01 1.0000000000e+01 0.0000e+00 0.0000e+00
</event>
<event>
 3      1 1.0000000e+00 -1.00000000e+00 -1.00000000e+00 -1.00000000e+00
       25 -1    0    0    0    0 +0.0000000000e+00 +0.0000000000e+00 +0.0000000000e+00 1.0000000000e+02 1.0000000000e+02 0.0000e+00 0.0000e+00
500000007  1    0    0    0    0 +0.0000000000e+00 +0.0000000000e+00 +4.6112085092e+01 5.1352550000e+01 2.2600000000e+01 0.0000e+00 0.0000e+00
500000003  1    0    0    0    0 +0.0000000000e+00 +0.0000000000e+00 -4.6112085092e+01 4.8647450000e+01 1.5500000000e+01 0.0000e+00 0.0000e+00
</event>
<event>
 5      1 1.0000000e+00 -1.00000000e+00 -1.00000000e+00 -1.00000000e+00
       25 -1    0    0    0    0 +0.0000000000e+00 +0.0000000000e+00 +0.0000000000e+00 1.0000000000e+02 1.0000000000e+02 0.0000e+00 0.0000e+00
500000000  2    0    0    0    0 +0.0000000000e+00 +0.0000000000e+00 +3.9359226238e+01 5.7698715267e+01 4.2200000000e+01 0.0000e+00 0.0000e+00
500000003  1    0    0    0    0 +0.0000000000e+00 +0.0000000000e+00 -3.9359226238e+01 4.2301284733e+01 1.5500000000e+01 0.0000e+00 0.0000e+00
500000001  1    1    0    0    0 -1.2319414523e+01 -1.1570938158e+00 +7.3504228868e-01 1.5926303006e+01 1.0000000000e+01 0.0000e+00 0.0000e+00
500000001  1    1    0    0    0 +1.2319414523e+01 +1.1570938158e+00 +3.8624183950e+01 4.1772412260e+01 1.0000000000e+01 0.0000e+00 0.0000e+00
</event>
<event>
 5      1 1.0000000e+00 -1.00000000e+00 -1.00000000e+00 -1.00000000e+00
       25 -1    0    0    0    0 +0.0000000000e+00 +0.0000000000e+00 +0.0000000000e+00 1.0000000000e+02 1.0000000000e+02 0.0000e+00 0.0000e+00
500000000  2    0    0    0    0 +0.0000000000e+00 +0.0000000000e+00 +3.0788093642e+01 6.4436722450e+01 5.6600000000e+01 0.0000e+00 0.0000e+00
500000004  1    0    0    0    0 +0.0000000000e+00 +0.0000000000e+00 -3.0788093642e+01 3.5563277550e+01 1.7800000000e+01 0.0000e+00 0.0000e+00
500000001  1    1    0    0    0 +2.3683426408e+01 +1.1231389962e+01 +1.1135150548e+01 3.0183445539e+01 1.0000000000e+01 0.0000e+00 0.0000e+00
500000001  1    1    0    0    0 -2.3683426408e+01 -1.1231389962e+01 +1.9652943094e+01 3.4253276911e+01 1.0000000000e+01 0.0000e+00 0.0000e+00
</event>
<event>
 5      1 1.0000000e+00 -1.00000000e+00 -1.00000000e+00 -1.00000000e+00
       25 -1    0    0    0    0 +0.0000000000e+00 +0.0000000000e+00 +0.0000000000e+00 1.0000000000e+02 1.0000000000e+02 0.0000e+00 0.0000e+00
500000002  1    0    0    0    0 +0.0000000000e+00 +0.0000000000e+00 +3.0043106879e+01 3.3315886164e+01 1.4400000000e+01 0.0000e+00 0.0000e+00
500000000  2    0    0    0    0 +0.0000000000e+00 +0.0000000000e+00 -3.0043106879e+01 6.6684113836e+01 5.9500000000e+01 0.0000e+00 0.0000e+00
500000001  1    2    0    0    0 -1.8891358320e+01 -1.8948128543e+01 -1.9220578853e+01 3.4428849036e+01 1.0000000000e+01 0.0000e+00 0.0000e+00
500000002  1    2    0    0    0 +1.8891358320e+01 +1.8948128543e+01 -1.0822528025e+01 3.2255264800e+01 1.4400000000e+01 0.0000e+00 0.0000e+00
</event>
<event>
 5      1 1.0000000e+00 -1.00000000e+00 -1.00000000e+00 -1.00000000e+00
       25 -1    0    0    0    0 +0.0000000000e+00 +0.0000000000e+00 +0.0000000000e+00 1.0000000000e+02 1.0000000000e+02 0.0000e+00 0.0000e+00
500000000  2    0    0    0    0 +0.0000000000e+00 +0.0000000000e+00 +4.3476177784e+01 5.5388588515e+01 3.4300000000e+01 0.0000e+00 0.0000e+00
500000001  1    0    0    0    0 +0.0000000000e+00 +0.0000000000e+00 -4.3476177784e+01 4.4611411485e+01 1.0000000000e+01 0.0000e+00 0.0000e+00
500000002  1    1    0    0    0 +8.5820048999e-01 +6.8964711527e+00 +3.1787869400e+01 3.5582670830e+01 1.4400000000e+01 0.0000e+00 0.0000e+00
500000002  1    1    0    0    0 -8.5820048999e-01 -6.8964711527e+00 +1.1688308384e+01 1.9805917684e+01 1.4400000000e+01 0.0000e+00 0.0000e+00
</event>
<event>
 5      1 1.0000000e+00 -1.00000000e+00 -1.00000000e+00 -1.00000000e+00
       25 -1    0    0    0    0 +0.0000000000e+00 +0.0000000000e+00 +0.0000000000e+00 1.0000000000e+02 1.0000000000e+02 0.0000e+00 0.0000e+00
500000000  2    0    0    0    0 +0.0000000000e+00 +0.0000000000e+00 +4.4419452386e+01 5.3304735248e+01 2.9500000000e+01 0.0000e+00 0.0000e+00
500000002  1    0    0    0    0 +0.0000000000e+00 +0.0000000000e+00 -4.4419452386e+01 4.6695264752e+01 1.4400000000e+01 0.0000e+00 0.0000e+00
500000001  1    1    0    0    0 -9.6625577449e+00 -4.7956638208e+00 +2.0681878447e+01 2.5379194427e+01 1.0000000000e+01 0.0000e+00 0.0000e+00
500000001  1    1    0    0    0 +9.6625577449e+00 +4.7956638208e+00 +2.3737573939e+01 2.7925540821e+01 1.0000000000e+01 0.0000e+00 0.0000e+00
</event>
<event>
 7      1 1.0000000e+00 -1.00000000e+00 -1.00000000e+00 -1.00000000e+00
       25 -1    0    0    0    0 +0.0000000000e+00 +0.0000000000e+00 +0.0000000000e+00 1.0000000000e+02 1.0000000000e+02 0.0000e+00 0.0000e+00
500000000  2    0    0    0    0 +0.0000000000e+00 +0.0000000000e+00 +3.3754047761e+01 4.7923377037e+01 3.4000000000e+01 0.0000e+00 0.0000e+00
500000000  2    0    0    0    0 +0.0000000000e+00 +0.0000000000e+00 -3.3754047761e+01 5.2076622963e+01 3.9700000000e+01 0.0000e+00 0.0000e+00
500000005  1    1    0    0    0 +3.2459930821e+00 -5.8920387231e+00 +2.8697778770e+01 3.4853623883e+01 1.8600000000e+01 0.0000e+00 0.0000e+00
500000001  1    1    0    0    0 -3.2459930821e+00 +5.8920387231e+00 +5.0562689906e+00 1.3069753154e+01 1.0000000000e+01 0.0000e+00 0.0000e+00
500000002  1    2    0    0    0 +7.3894281578e+00 -5.4668039136e+00 -4.4143835542e+00 1.7644726569e+01 1.4400000000e+01 0.0000e+00 0.0000e+00
500000003  1    2    0    0    0 -7.3894281578e+00 +5.4668039136e+00 -2.9339664207e+01 3.4431896394e+01 1.5500000000e+01 0.0000e+00 0.0000e+00
</event>
<event>
 5      1 1.0000000e+00 -1.00000000e+00 -1.00000000e+00 -1.00000000e+00
       25 -1    0    0    0    0 +0.0000000000e+00 +0.0000000000e+00 +0.0000000000e+00 1.0000000000e+02 1.0000000000e+02 0.0000e+00 0.0000e+00
500000001  1    0    0    0    0 +0.0000000000e+00 +0.0000000000e+00 +4.4437170452e+01 4.5548459005e+01 1.0000000000e+01 0.0000e+00 0.0000e+00
500000000  2    0    0    0    0 +0.0000000000e+00 +0.0000000000e+00 -4.4437170452e+01 5.4451540995e+01 3.1500000000e+01 0.0000e+00 0.0000e+00
500000001  1    2    0    0    0 +2.9990645406e+00 +8.7278329733e+00 -2.5712567481e+01 2.9091331750e+01 1.0000000000e+01 0.0000e+00 0.0000e+00
500000002  1    2    0    0    0 -2.9990645406e+00 -8.7278329733e+00 -1.8724602970e+01 2.5360209244e+01 1.4400000000e+01 0.0000e+00 0.0000e+00
</event>
<event>
 7      1 1.0000000e+00 -1.00000000e+00 -1.00000000e+00 -1.00000000e+00
       25 -1    0    0    0    0 +0.0000000000e+00 +0.0000000000e+00 +0.0000000000e+00 1.0000000000e+02 1.0000000000e+02 0.0000e+00 0.0000e+00
500000000  2    0    0    0    0 +0.0000000000e+00 +0.0000000000e+00 +4.1020332907e+01 5.2482188052e+01 3.2700000000e+01 0.0000e+00 0.0000e+00
500000000  2    0    0    0    0 +0.0000000000e+00 +0.0000000000e+00 -4.1020332907e+01 4.7517811948e+01 2.4000000000e+01 0.0000e+00 0.0000e+00
500000001  1    1    0    0    0 -5.9613071061e+00 -7.8018920822e+00 +1.3904169679e+01 1.9741647270e+01 1.0000000000e+01 0.0000e+00 0.0000e+00
500000003  1    1    0    0    0 +5.9613071061e+00 +7.8018920822e+00 +2.7116163228e+01 3.2740540782e+01 1.5500000000e+01 0.0000e+00 0.0000e+00
500000001  1    2    0    0    0 -1.9250342817e+00 +3.9845773868e+00 -3.0263428475e+01 3.2178528819e+01 1.0000000000e+01 0.0000e+00 0.0000e+00
500000001  1    2    0    0    0 +1.9250342817e+00 -3.9845773868e+00 -1.0756904432e+01 1.5339283129e+01 1.0000000000e+01 0.0000e+00 0.0000e+00
</event>
<event>
 5      1 1.0000000e+00 -1.00000000e+00 -1.00000000e+00 -1.00000000e+00
       25 -1    0    0    0    0 +0.0000000000e+00 +0.0000000000e+00 +0.0000000000e+00 1.0000000000e+02 1.0000000000e+02 0.0000e+00 0.0000e+00
500000000  2    0    0    0    0 +0.0000000000e+00 +0.0000000000e+00 +4.5301969871e+01 5.3607452385e+01 2.8700000000e+01 0.0000e+00 0.0000e+00
500000001  1    0    0    0    0 +0.0000000000e+00 +0.0000000000e+00 -4.5301969871e+01 4.6392547615e+01 1.0000000000e+01 0.0000e+00 0.0000e+00
500000001  1    1    0    0    0 +6.7557209868e-01 -7.1996100662e+00 +3.6277878751e+01 3.8319385035e+01 1.0000000000e+01 0.0000e+00 0.0000e+00
500000001  1    1    0    0    0 -6.7557209868e-01 +7.1996100662e+00 +9.0240911203e+00 1.5288067351e+01 1.0000000000e+01 0.0000e+00 0.0000e+00
</event>
<event>
 3      1 1.0000000e+00 -1.00000000e+00 -1.00000000e+00 -1.00000000e+00
       25 -1    0    0    0    0 +0.0000000000e+00 +0.0000000000e+00 +0.0000000000e+00 1.0000000000e+02 1.0000000000e+02 0.0000e+00 0.0000e+00
500000004  1    0    0    0    0 +0.0000000000e+00 +0.0000000000e+00 +4.7882726422e+01 5.1084200000e+01 1.7800000000e+01 0.0000e+00 0.0000e+00
500000001  1    0    0    0    0 +0.0000000000e+00 +0.0000000000e+00 -4.7882726422e+01 4.8915800000e+01 1.0000000000e+01 0.0000e+00 0.0000e+00
</event>
<event>
 5      1 1.0000000e+00 -1.00000000e+00 -1.00000000e+00 -1.00000000e+00
       25 -1    0    0    0    0 +0.0000000000e+00 +0.0000000000e+00 +0.0000000000e+00 1.0000000000e+02 1.0000000000e+02 0.0000e+00 0.0000e+00
500000002  1    0    0    0    0 +0.0000000000e+00 +0.0000000000e+00 +3.1665438674e+01 3.4785916783e+01 1.4400000000e+01 0.0000e+00 0.0000e+00
500000000  2    0    0    0    0 +0.0000000000e+00 +0.0000000000e+00 -3.1665438674e+01 6.5214083217e+01 5.7000000000e+01 0.0000e+00 0.0000e+00
500000002  1    2    0    0    0 +7.9636174869e+00 +5.3654530886e+00 -4.3607021855e+01 4.6916304686e+01 1.4400000000e+01 0.0000e+00 0.0000e+00
500000001  1    2    0    0    0 -7.9636174869e+00 -5.3654530886e+00 +1.1941583181e+01 1.8297778531e+01 1.0000000000e+01 0.0000e+00 0.0000e+00
</event>
<event>
 5      1 1.0000000e+00 -1.00000000e+00 -1.00000000e+00 -1.00000000e+00
       25 -1    0    0    0    0 +0.0000000000e+00 +0.0000000000e+00 +0.0000000000e+00 1.0000000000e+02 1.0000000000e+02 0.0000e+00 0.0000e+00
500000001  1    0    0    0    0 +0.0000000000e+00 +0.0000000000e+00 +4.6471955361e+01 4.7535698534e+01 1.0000000000e+01 0.0000e+00 0.0000e+00
500000000  2    0    0    0    0 +0.0000000000e+00 +0.0000000000e+00 -4.6471955361e+01 5.2464301466e+01 2.4300000000e+01 0.0000e+00 0.0000e+00
500000001  1    2    0    0    0 -6.3148525653e+00 -2.6967578491e+00 -2.5459824256e+01 2.8201994911e+01 1.0000000000e+01 0.0000e+00 0.0000e+00
500000001  1    2    0    0    0 +6.3148525653e+00 +2.6967578491e+00 -2.1012131105e+01 2.4262306555e+01 1.0000000000e+01 0.0000e+00 0.0000e+00
</event>
<event>
 3      1 1.0000000e+00 -1.00000000e+00 -1.00000000e+00 -1.00000000e+00
       25 -1    0    0    0    0 +0.0000000000e+00 +0.0000000000e+00 +0.0000000000e+00 1.0000000000e+02 1.0000000000e+02 0.0000e+00 0.0000e+00
500000002  1    0    0    0    0 +0.0000000000e+00 +0.0000000000e+00 +4.8441801724e+01 5.0536800000e+01 1.4400000000e+01 0.0000e+00 0.0000e+00
500000001  1    0    0    0    0 +0.0000000000e+00 +0.0000000000e+00 -4.8441801724e+01 4.9463200000e+01 1.0000000000e+01 0.0000e+00 0.0000e+00
</event>
<event>
 5      1 1.0000000e+00 -1.00000000e+00 -1.00000000e+00 -1.00000000e+00
       25 -1    0    0    0    0 +0.0000000000e+00 +0.0000000000e+00 +0.0000000000e+00 1.0000000000e+02 1.0000000000e+02 0.0000e+00 0.0000e+00
500000006  1    0    0    0    0 +0.0000000000e+00 +0.0000000000e+00 +3.9738297747e+01 4.5134158991e+01 2.1400000000e+01 0.0000e+00 0.0000e+00
500000000  2    0    0    0    0 +0.0000000000e+00 +0.0000000000e+00 -3.9738297747e+01 5.4865841009e+01 3.7800000000e+01 0.0000e+00 0.0000e+00
500000001  1    2    0    0    0 +1.0147374298e+01 +7.1211965787e+00 -3.4666741437e+01 3.8150538760e+01 1.0000000000e+01 0.0000e+00 0.0000e+00
500000001  1    2    0    0    0 -1.0147374298e+01 -7.1211965787e+00 -5.0715563104e+00 1.6715302249e+01 1.0000000000e+01 0.0000e+00 0.0000e+00
</event>
<event>
 5      1 1.0000000e+00 -1.00000000e+00 -1.00000000e+00 -1.00000000e+00
       25 -1    0    0    0    0 +0.0000000000e+00 +0.0000000000e+00 +0.0000000000e+00 1.0000000000e+02 1.0000000000e+02 0.0000e+00 0.0000e+00
500000002  1    0    0    0    0 +0.0000000000e+00 +0.0000000000e+00 +3.2301265241e+01 3.5365685857e+01 1.4400000000e+01 0.0000e+00 0.0000e+00
500000000  2    0    0    0    0 +0.0000000000e+00 +0.0000000000e+00 -3.2301265241e+01 6.4634314143e+01 5.6000000000e+01 0.0000e+00 0.0000e+00
500000001  1    2    0    0    0 -1.9268590811e+01 +1.4016070340e+01 -2.8575818747e+01 3.8526695117e+01 1.0000000000e+01 0.0000e+00 0.0000e+00
500000001  1    2    0    0    0 +1.9268590811e+01 -1.4016070340e+01 -3.7254464943e+00 2.6107619026e+01 1.0000000000e+01 0.0000e+00 0.0000e+00
</event>
<event>
 5      1 1.0000000e+00 -1.00000000e+00 -1.00000000e+00 -1.00000000e+00
       25 -1    0    0    0    0 +0.0000000000e+00 +0.0000000000e+00 +0.0000000000e+00 1.0000000000e+02 1.0000000000e+02 0.0000e+00 0.0000e+00
500000002  1    0    0    0    0 +0.0000000000e+00 +0.0000000000e+00 +4.2656804193e+01 4.5021805205e+01 1.4400000000e+01 0.0000e+00 0.0000e+00
500000000  2    0    0    0    0 +0.0000000000e+00 +0.0000000000e+00 -4.2656804193e+01 5.4978194795e+01 3.4700000000e+01 0.0000e+00 0.0000e+00
500000002  1    2    0    0    0 -5.0832236142e+00 -7.1563630231e+00 -1.4921551273e+01 2.2518112408e+01 1.4400000000e+01 0.0000e+00 0.0000e+00
500000002  1    2    0    0    0 +5.0832236142e+00 +7.1563630231e+00 -2.7735252920e+01 3.2460082387e+01 1.4400000000e+01 0.0000e+00 0.0000e+00
</event>
<event>
 5      1 1.0000000e+00 -1.00000000e+00 -1.00000000e+00 -1.00000000e+00
       25 -1    0    0    0    0 +0.0000000000e+00 +0.0000000000e+00 +0.0000000000e+00 1.0000000000e+02 1.0000000000e+02 0.0000e+00 0.0000e+00
500000000  2    0    0    0    0 +0.0000000000e+00 +0.0000000000e+00 +4.6073955476e+01 5.1728172054e+01 2.3500000000e+01 0.0000e+00 0.0000e+00
500000002  1    0    0    0    0 +0.0000000000e+00 +0.0000000000e+00 -4.6073955476e+01 4.8271827946e+01 1.4400000000e+01 0.0000e+00 0.0000e+00
500000001  1    1    0    0    0 +1.1018202325e+00 -1.2051265351e+00 +3.6158479869e+01 3.7551324933e+01 1.0000000000e+01 0.0000e+00 0.0000e+00
500000001  1    1    0    0    0 -1.1018202325e+00 +1.2051265351e+00 +9.9154756073e+00 1.4176847122e+01 1.0000000000e+01 0.0000e+00 0.0000e+00
</event>
<event>
 3      1 1.0000000e+00 -1.00000000e+00 -1.00000000e+00 -1.00000000e+00
       25 -1    0    0    0    0 +0.0000000000e+00 +0.0000000000e+00 +0.0000000000e+00 1.0000000000e+02 1.0000000000e+02 0.0000e+00 0.0000e+00
500000009  1    0    0    0    0 +0.0000000000e+00 +0.0000000000e+00 +4.6028401490e+01 5.1771650000e+01 2.3700000000e+01 0.0000e+00 0.0000e+00
500000002  1    0    0    0    0 +0.0000000000e+00 +0.0000000000e+00 -4.6028401490e+01 4.8228350000e+01 1.4400000000e+01 0.0000e+00 0.0000e+00
</event>
<event>
 5      1 1.0000000e+00 -1.00000000e+00 -1.00000000e+00 -1.00000000e+00
       25 -1    0    0    0    0 +0.0000000000e+00 +0.0000000000e+00 +0.0000000000e+00 1.0000000000e+02 1.0000000000e+02 0.0000e+00 0.0000e+00
500000000  2    0    0    0    0 +0.0000000000e+00 +0.0000000000e+00 +4.1092945244e+01 5.7707800379e+01 4.0500000000e+01 0.0000e+00 0.0000e+00
500000001  1    0    0    0    0 +0.0000000000e+00 +0.0000000000e+00 -4.1092945244e+01 4.2292199621e+01 1.0000000000e+01 0.0000e+00 0.0000e+00
500000001  1    1    0    0    0 +1.9292813960e+00 +4.6049901684e+00 -2.5635748806e+00 1.1467343952e+01 1.0000000000e+01 0.0000e+00 0.0000e+00
500000002  1    1    0    0    0 -1.9292813960e+00 -4.6049901684e+00 +4.3656520124e+01 4.6240456426e+01 1.4400000000e+01 0.0000e+00 0.0000e+00
</event>
<event>
 5      1 1.0000000e+00 -1.00000000e+00 -1.00000000e+00 -1.00000000e+00
       25 -1    0    0    0    0 +0.0000000000e+00 +0.0000000000e+00 +0.0000000000e+00 1.0000000000e+02 1.0000000000e+02 0.0000e+00 0.0000e+00
500000000  2    0    0    0    0 +0.0000000000e+00 +0.0000000000e+00 +4.2896517584e+01 5.5953306357e+01 3.5900000000e+01 0.0000e+00 0.0000e+00
500000001  1    0    0    0    0 +0.0000000000e+00 +0.0000000000e+00 -4.2896517584e+01 4.4046693643e+01 1.0000000000e+01 0.0000e+00 0.0000e+00
500000004  1    1    0    0    0 +2.5346675603e+00 -3.3954693525e+00 +4.1041340594e+01 4.4935346772e+01 1.7800000000e+01 0.0000e+00 0.0000e+00
500000001  1    1    0    0    0 -2.5346675603e+00 +3.3954693525e+00 +1.8551769904e+00 1.1017959586e+01 1.0000000000e+01 0.0000e+00 0.0000e+00
</event>
<event>
 5      1 1.0000000e+00 -1.00000000e+00 -1.00000000e+00 -1.00000000e+00
       25 -1    0    0    0    0 +0.0000000000e+00 +0.0000000000e+00 +0.0000000000e+00 1.0000000000e+02 1.0000000000e+02 0.0000e+00 0.0000e+00
500000000  2    0    0    0    0 +0.0000000000e+00 +0.0000000000e+00 +3.6621347118e+01 6.2037873285e+01 5.0100000000e+01 0.0000e+00 0.0000e+00
500000001  1    0    0    0    0 +0.0000000000e+00 +0.0000000000e+00 -3.6621347118e+01 3.7962126715e+01 1.0000000000e+01 0.0000e+00 0.0000e+00
500000001  1    1    0    0    0 +1.6302189023e+01 +7.5572585830e-01 +3.8308593160e+01 4.2823834467e+01 1.0000000000e+01 0.0000e+00 0.0000e+00
500000001  1    1    0    0    0 -1.6302189023e+01 -7.5572585830e-01 -1.6872460427e+00 1.9214038819e+01 1.0000000000e+01 0.0000e+00 0.0000e+00
</event>
<event>
 9      1 1.0000000e+00 -1.00000000e+00 -1.00000000e+00 -1.00000000e+00
       25 -1    0    0    0    0 +0.0000000000e+00 +0.0000000000e+00 +0.0000000000e+00 1.0000000000e+02 1.0000000000e+02 0.0000e+00 0.0000e+00
500000000  2    0    0    0    0 +0.0000000000e+00 +0.0000000000e+00 +2.3084709497e+01 5.1113318429e+01 4.5600000000e+01 0.0000e+00 0.0000e+00
500000000  2    0    0    0    0 +0.0000000000e+00 +0.0000000000e+00 -2.3084709497e+01 4.8886681571e+01 4.3100000000e+01 0.0000e+00 0.0000e+00
500000004  1    1    0    0    0 +1.5742033989e+01 +2.0087275199e+00 +9.0987253135e+00 2.5523977407e+01 1.7800000000e+01 0.0000e+00 0.0000e+00
500000002  1    1    0    0    0 -1.5742033989e+01 -2.0087275199e+00 +1.3985984183e+01 2.5589341022e+01 1.4400000000e+01 0.0000e+00 0.0000e+00
500000000  2    2    0    0    0 +4.5616313001e+00 -1.3620766017e+00 -2.2475004256e+01 3.3707897915e+01 2.4700000000e+01 0.0000e+00 0.0000e+00
500000002  1    2    0    0    0 -4.5616313001e+00 +1.3620766017e+00 -6.0970524045e-01 1.5178783656e+01 1.4400000000e+01 0.0000e+00 0.0000e+00
500000001  1    5    0    0    0 +5.0637651115e-01 -8.0402926678e-01 -7.5263979442e+00 1.2551874213e+01 1.0000000000e+01 0.0000e+00 0.0000e+00
500000002  1    5    0    0    0 +4.0552547889e+00 -5.5804733494e-01 -1.4948606312e+01 2.1156023703e+01 1.4400000000e+01 0.0000e+00 0.0000e+00
</event>
<event>
 5      1 1.0000000e+00 -1.00000000e+00 -1.00000000e+00 -1.00000000e+00
       25 -1    0    0    0    0 +0.0000000000e+00 +0.0000000000e+00 +0.0000000000e+00 1.0000000000e+02 1.0000000000e+02 0.0000e+00 0.0000e+00
500000000  2    0    0    0    0 +0.0000000000e+00 +0.0000000000e+00 +4.0218509798e+01 5.7281285947e+01 4.0800000000e+01 0.0000e+00 0.0000e+00
500000002  1    0    0    0    0 +0.0000000000e+00 +0.0000000000e+00 -4.0218509798e+01 4.2718714053e+01 1.4400000000e+01 0.0000e+00 0.0000e+00
500000002  1    1    0    0    0 -3.8689606125e+00 +8.3382106893e+00 +4.0220593035e+01 4.3698406353e+01 1.4400000000e+01 0.0000e+00 0.0000e+00
500000001  1    1    0    0    0 +3.8689606125e+00 -8.3382106893e+00 -2.0832375858e-03 1.3582879594e+01 1.0000000000e+01 0.0000e+00 0.0000e+00
</event>
<event>
 5      1 1.0000000e+00 -1.00000000e+00 -1.00000000e+00 -1.00000000e+00
       25 -1    0    0    0    0 +0.0000000000e+00 +0.0000000000e+00 +0.0000000000e+00 1.0000000000e+02 1.0000000000e+02 0.0000e+00 0.0000e+00
500000000  2    0    0    0    0 +0.0000000000e+00 +0.0000000000e+00 +4.5593518208e+01 5.1843807225e+01 2.4700000000e+01 0.0000e+00 0.0000e+00
500000003  1    0    0    0    0 +0.0000000000e+00 +0.0000000000e+00 -4.5593518208e+01 4.8156192775e+01 1.5500000000e+01 0.0000e+00 0.0000e+00
500000001  1    1    0    0    0 +6.6656270051e+00 -1.5327039184e+00 +1.7882017209e+01 2.1599682964e+01 1.0000000000e+01 0.0000e+00 0.0000e+00
500000001  1    1    0    0    0 -6.6656270051e+00 +1.5327039184e+00 +2.7711500999e+01 3.0244124261e+01 1.0000000000e+01 0.0000e+00 0.0000e+00
</event>
<event>
 5      1 1.0000000e+00 -1.00000000e+00 -1.00000000e+00 -1.00000000e+00
       25 -1    0    0    0    0 +0.0000000000e+00 +0.0000000000e+00 +0.0000000000e+00 1.0000000000e+02 1.0000000000e+02 0.0000e+00 0.0000e+00
500000000  2    0    0    0    0 +0.0000000000e+00 +0.0000000000e+00 +3.6370620375e+01 6.0464294284e+01 4.8300000000e+01 0.0000e+00 0.0000e+00
500000003  1    0    0    0    0 +0.0000000000e+00 +0.0000000000e+00 -3.6370620375e+01 3.9535705716e+01 1.5500000000e+01 0.0000e+00 0.0000e+00
500000001  1    1    0    0    0 +7.8163277271e+00 +2.7563377662e+00 -5.5876051695e+00 1.4139084431e+01 1.0000000000e+01 0.0000e+00 0.0000e+00
500000004  1    1    0    0    0 -7.8163277271e+00 -2.7563377662e+00 +4.1958225545e+01 4.6325209853e+01 1.7800000000e+01 0.0000e+00 0.0000e+00
</event>
<event>
 7      1 1.0000000e+00 -1.00000000e+00 -1.00000000e+00 -1.00000000e+00
       25 -1    0    0    0    0 +0.0000000000e+00 +0.0000000000e+00 +0.0000000000e+00 1.0000000000e+02 1.0000000000e+02 0.0000e+00 0.0000e+00
500000000  2    0    0    0    0 +0.0000000000e+00 +0.0000000000e+00 +3.5995997223e+01 4.6216107822e+01 2.9000000000e+01 0.0000e+00 0.0000e+00
500000000  2    0    0    0    0 +0.0000000000e+00 +0.0000000000e+00 -3.5995997223e+01 5.3783892178e+01 4.0000000000e+01 0.0000e+00 0.0000e+00
500000001  1    1    0    0    0 +3.7536523171e+00 +2.8978290970e+00 +3.2917957606e+01 3.4728651746e+01 1.0000000000e+01 0.0000e+00 0.0000e+00
500000001  1    1    0    0    0 -3.7536523171e+00 -2.8978290970e+00 +3.0780396177e+00 1.1487456075e+01 1.0000000000e+01 0.0000e+00 0.0000e+00
500000001  1    2    0    0    0 -2.5390744866e+00 -8.1244285752e+00 -3.8266316241e+01 4.0456942514e+01 1.0000000000e+01 0.0000e+00 0.0000e+00
500000001  1    2    0    0    0 +2.5390744866e+00 +8.1244285752e+00 +2.2703190175e+00 1.3326949665e+01 1.0000000000e+01 0.0000e+00 0.0000e+00
</event>
<event>
 5      1 1.0000000e+00 -1.00000000e+00 -1.00000000e+00 -1.00000000e+00
       25 -1    0    0    0    0 +0.0000000000e+00 +0.0000000000e+00 +0.0000000000e+00 1.0000000000e+02 1.0000000000e+02 0.0000e+00 0.0000e+00
500000002  1    0    0    0    0 +0.0000000000e+00 +0.0000000000e+00 +4.1874390675e+01 4.4281199107e+01 1.4400000000e+01 0.0000e+00 0.0000e+00
500000000  2    0    0    0    0 +0.0000000000e+00 +0.0000000000e+00 -4.1874390675e+01 5.5718800893e+01 3.6800000000e+01 0.0000e+00 0.0000e+00
500000001  1    2    0    0    0 +9.8010073518e+00 +7.9556325677e+00 -1.1414353736e+01 1.9739283317e+01 1.0000000000e+01 0.0000e+00 0.0000e+00
500000002  1    2    0    0    0 -9.8010073518e+00 -7.9556325677e+00 -3.0460036939e+01 3.5979517576e+01 1.4400000000e+01 0.0000e+00 0.0000e+00
</event>
<event>
 5      1 1.0000000e+00 -1.00000000e+00 -1.00000000e+00 -1.00000000e+00
       25 -1    0    0    0    0 +0.0000000000e+00 +0.0000000000e+00 +0.0000000000e+00 1.0000000000e+02 1.0000000000e+02 0.0000e+00 0.0000e+00
500000002  1    0    0    0    0 +0.0000000000e+00 +0.0000000000e+00 +4.1642659654e+01 4.4062127764e+01 1.4400000000e+01 0.0000e+00 0.0000e+00
500000000  2    0    0    0    0 +0.0000000000e+00 +0.0000000000e+00 -4.1642659654e+01 5.5937872236e+01 3.7300000000e+01 0.0000e+00 0.0000e+00
500000001  1    2    0    0    0 -5.3245163595e+00 +8.7622702118e-01 -4.3016598291e+01 4.4492088924e+01 1.0000000000e+01 0.0000e+00 0.0000e+00
500000001  1    2    0    0    0 +5.3245163595e+00 -8.7622702118e-01 +1.3739386371e+00 1.1445783312e+01 1.0000000000e+01 0.0000e+00 0.0000e+00
</event>
<event>
 3      1 1.0000000e+00 -1.00000000e+00 -1.00000000e+00 -1.00000000e+00
       25 -1    0    0    0    0 +0.0000000000e+00 +0.0000000000e+00 +0.0000000000e+00 1.0000000000e+02 1.0000000000e+02 0.0000e+00 0.0000e+00
500000002  1    0    0    0    0 +0.0000000000e+00 +0.0000000000e+00 +4.7309614739e+01 4.9452600000e+01 1.4400000000e+01 0.0000e+00 0.0000e+00
500000004  1    0    0    0    0 +0.0000000000e+00 +0.0000000000e+00 -4.7309614739e+01 5.0547400000e+01 1.7800000000e+01 0.0000e+00 0.0000e+00
</event>
<event>
 3      1 1.0000000e+00 -1.00000000e+00 -1.00000000e+00 -1.00000000e+00
       25 -1    0    0    0    0 +0.0000000000e+00 +0.0000000000e+00 +0.0000000000e+00 1.0000000000e+02 1.0000000000e+02 0.0000e+00 0.0000e+00
500000001  1    0    0    0    0 +0.0000000000e+00 +0.0000000000e+00 +4.7733975406e+01 4.8770200000e+01 1.0000000000e+01 0.0000e+00 0.0000e+00
500000005  1    0    0    0    0 +0.0000000000e+00 +0.0000000000e+00 -4.7733975406e+01 5.1229800000e+01 1.8600000000e+01 0.0000e+00 0.0000e+00
</event>
<event>
 5      1 1.0000000e+00 -1.00000000e+00 -1.00000000e+00 -1.00000000e+00
       25 -1    0    0    0    0 +0.0000000000e+00 +0.0000000000e+00 +0.0000000000e+00 1.0000000000e+02 1.0000000000e+02 0.0000e+00 0.0000e+00
500000001  1    0    0    0    0 +0.0000000000e+00 +0.0000000000e+00 +3.6147603402e+01 3.7505322711e+01 1.0000000000e+01 0.0000e+00 0.0000e+00
500000000  2    0    0    0    0 +0.0000000000e+00 +0.0000000000e+00 -3.6147603402e+01 6.2494677289e+01 5.1000000000e+01 0.0000e+00 0.0000e+00
500000001  1    2    0    0    0 -5.9668040938e+00 -2.0603609668e+01 -6.4685777987e+00 2.4534750482e+01 1.0000000000e+01 0.0000e+00 0.0000e+00
500000001  1    2    0    0    0 +5.9668040938e+00 +2.0603609668e+01 -2.9679025603e+01 3.7959926807e+01 1.0000000000e+01 0.0000e+00 0.0000e+00
</event>
<event>
 5      1 1.0000000e+00 -1.00000000e+00 -1.00000000e+00 -1.00000000e+00
       25 -1    0    0    0    0 +0.0000000000e+00 +0.0000000000e+00 +0.0000000000e+00 1.0000000000e+02 1.0000000000e+02 0.0000e+00 0.0000e+00
500000005  1    0    0    0    0 +0.0000000000e+00 +0.0000000000e+00 +4.4522185985e+01 4.8251269879e+01 1.8600000000e+01 0.0000e+00 0.0000e+00
500000000  2    0    0    0    0 +0.0000000000e+00 +0.0000000000e+00 -4.4522185985e+01 5.1748730121e+01 2.6400000000e+01 0.0000e+00 0.0000e+00
500000001  1    2    0    0    0 +1.8107311809e+00 -3.6046833357e+00 -1.3236528976e+01 1.7072732315e+01 1.0000000000e+01 0.0000e+00 0.0000e+00
500000002  1    2    0    0    0 -1.8107311809e+00 +3.6046833357e+00 -3.1285657009e+01 3.4675997806e+01 1.4400000000e+01 0.0000e+00 0.0000e+00
</event>
<event>
 3      1 1.0000000e+00 -1.00000000e+00 -1.00000000e+00 -1.00000000e+00
       25 -1    0    0    0    0 +0.0000000000e+00 +0.0000000000e+00 +0.0000000000e+00 1.0000000000e+02 1.0000000000e+02 0.0000e+00 0.0000e+00
500000001  1    0    0    0    0 +0.0000000000e+00 +0.0000000000e+00 +4.8441801724e+01 4.9463200000e+01 1.0000000000e+01 0.0000e+00 0.0000e+00
500000002  1    0    0    0    0 +0.0000000000e+00 +0.0000000000e+00 -4.8441801724e+01 5.0536800000e+01 1.4400000000e+01 0.0000e+00 0.0000e+00
</event>
<event>
 5      1 1.0000000e+00 -1.00000000e+00 -1.00000000e+00 -1.00000000e+00
       25 -1    0    0    0    0 +0.0000000000e+00 +0.0000000000e+00 +0.0000000000e+00 1.0000000000e+02 1.0000000000e+02 0.0000e+00 0.0000e+00
500000001  1    0    0    0    0 +0.0000000000e+00 +0.0000000000e+00 +4.0335924004e+01 4.1557030275e+01 1.0000000000e+01 0.0000e+00 0.0000e+00
500000000  2    0    0    0    0 +0.0000000000e+00 +0.0000000000e+00 -4.0335924004e+01 5.8442969725e+01 4.2300000000e+01 0.0000e+00 0.0000e+00
500000007  1    2    0    0    0 -7.6333726014e-01 -1.1460032380e+01 -3.2790407753e+01 4.1447386728e+01 2.2600000000e+01 0.0000e+00 0.0000e+00
500000001  1    2    0    0    0 +7.6333726014e-01 +1.1460032380e+01 -7.5455162509e+00 1.6995582997e+01 1.0000000000e+01 0.0000e+00 0.0000e+00
</event>
<event>
 7      1 1.0000000e+00 -1.00000000e+00 -1.00000000e+00 -1.00000000e+00
       25 -1    0    0    0    0 +0.0000000000e+00 +0.0000000000e+00 +0.0000000000e+00 1.0000000000e+02 1.0000000000e+02 0.0000e+00 0.0000e+00
500000000  2    0    0    0    0 +0.0000000000e+00 +0.0000000000e+00 +2.7100703613e+01 3.8162570441e+01 2.6900000000e+01 0.0000e+00 0.0000e+00
500000000  2    0    0    0    0 +0.0000000000e+00 +0.0000000000e+00 -2.7100703613e+01 6.1837429559e+01 5.5600000000e+01 0.0000e+00 0.0000e+00
500000001  1    1    0    0    0 +1.5526963885e+00 -2.6083011317e+00 +1.5597699915e+00 1.0566313610e+01 1.0000000000e+01 0.0000e+00 0.0000e+00
500000001  1    1    0    0    0 -1.5526963885e+00 +2.6083011317e+00 +2.5540933621e+01 2.7596256831e+01 1.0000000000e+01 0.0000e+00 0.0000e+00
500000006  1    2    0    0    0 -6.2346430624e+00 +1.7282677438e+01 -3.1298035641e+00 2.8378114523e+01 2.1400000000e+01 0.0000e+00 0.0000e+00
500000002  1    2    0    0    0 +6.2346430624e+00 -1.7282677438e+01 -2.3970900049e+01 3.3459315036e+01 1.4400000000e+01 0.0000e+00 0.0000e+00
</event>
<event>
 3      1 1.0000000e+00 -1.00000000e+00 -1.00000000e+00 -1.00000000e+00
       25 -1    0    0    0    0 +0.0000000000e+00 +0.0000000000e+00 +0.0000000000e+00 1.0000000000e+02 1.0000000000e+02 0.0000e+00 0.0000e+00
500000001  1    0    0    0    0 +0.0000000000e+00 +0.0000000000e+00 +4.6459170658e+01 4.7523200000e+01 1.0000000000e+01 0.0000e+00 0.0000e+00
500000008  1    0    0    0    0 +0.0000000000e+00 +0.0000000000e+00 -4.6459170658e+01 5.2476800000e+01 2.4400000000e+01 0.0000e+00 0.0000e+00
</event>
<event>
 3      1 1.0000000e+00 -1.00000000e+00 -1.00000000e+00 -1.00000000e+00
       25 -1    0    0    0    0 +0.0000000000e+00 +0.0000000000e+00 +0.0000000000e+00 1.0000000000e+02 1.0000000000e+02 0.0000e+00 0.0000e+00
500000002  1    0    0    0    0 +0.0000000000e+00 +0.0000000000e+00 +4.8441801724e+01 5.0536800000e+01 1.4400000000e+01 0.0000e+00 0.0000e+00
500000001  1    0    0    0    0 +0.0000000000e+00 +0.0000000000e+00 -4.8441801724e+01 4.9463200000e+01 1.0000000000e+01 0.0000e+00 0.0000e+00
</event>
<event>
 3      1 1.0000000e+00 -1.00000000e+00 -1.00000000e+00 -1.00000000e+00
       25 -1    0    0    0    0 +0.0000000000e+00 +0.0000000000e+00 +0.0000000000e+00 1.0000000000e+02 1.0000000000e+02 0.0000e+00 0.0000e+00
500000002  1    0    0    0    0 +0.0000000000e+00 +0.0000000000e+00 +4.8441801724e+01 5.0536800000e+01 1.4400000000e+01 0.0000e+00 0.0000e+00
500000001  1    0    0    0    0 +0.0000000000e+00 +0.0000000000e+00 -4.8441801724e+01 4.9463200000e+01 1.0000000000e+01 0.0000e+00 0.0000e+00
</event>
<event>
 5      1 1.0000000e+00 -1.00000000e+00 -1.00000000e+00 -1.00000000e+00
       25 -1    0    0    0    0 +0.0000000000e+00 +0.0000000000e+00 +0.0000000000e+00 1.0000000000e+02 1.0000000000e+02 0.0000e+00 0.0000e+00
500000000  2    0    0    0    0 +0.0000000000e+00 +0.0000000000e+00 +4.5488293642e+01 5.0855876664e+01 2.2700000000e+01 0.0000e+00 0.0000e+00
500000005  1    0    0    0    0 +0.0000000000e+00 +0.0000000000e+00 -4.5488293642e+01 4.9144123336e+01 1.8600000000e+01 0.0000e+00 0.0000e+00
500000001  1    1    0    0    0 -7.9195647314e-01 +2.0930396355e-01 +3.4706577847e+01 3.6127794688e+01 1.0000000000e+01 0.0000e+00 0.0000e+00
500000001  1    1    0    0    0 +7.9195647314e-01 -2.0930396355e-01 +1.0781715795e+01 1.4728081976e+01 1.0000000000e+01 0.0000e+00 0.0000e+00
</event>
<event>
 5      1 1.0000000e+00 -1.00000000e+00 -1.00000000e+00 -1.00000000e+00
       25 -1    0    0    0    0 +0.0000000000e+00 +0.0000000000e+00 +0.0000000000e+00 1.0000000000e+02 1.0000000000e+02 0.0000e+00 0.0000e+00
500000002  1    0    0    0    0 +0.0000000000e+00 +0.0000000000e+00 +4.5820459842e+01 4.8029933792e+01 1.4400000000e+01 0.0000e+00 0.0000e+00
500000000  2    0    0    0    0 +0.0000000000e+00 +0.0000000000e+00 -4.5820459842e+01 5.1970066208e+01 2.4500000000e+01 0.0000e+00 0.0000e+00
500000002  1    2    0    0    0 -5.0792909150e-01 -2.8559270299e-01 -2.9238419631e+01 3.2597311817e+01 1.4400000000e+01 0.0000e+00 0.0000e+00
500000001  1    2    0    0    0 +5.0792909150e-01 +2.8559270299e-01 -1.6582040211e+01 1.9372754391e+01 1.0000000000e+01 0.0000e+00 0.0000e+00
</event>
<event>
 5      1 1.0000000e+00 -1.00000000e+00 -1.00000000e+00 -1.00000000e+00
       25 -1    0    0    0    0 +0.0000000000e+00 +0.0000000000e+00 +0.0000000000e+00 1.0000000000e+02 1.0000000000e+02 0.0000e+00 0.0000e+00
500000000  2    0    0    0    0 +0.0000000000e+00 +0.0000000000e+00 +4.6961260325e+01 5.1985835722e+01 2.2300000000e+01 0.0000e+00 0.0000e+00
500000001  1    0    0    0    0 +0.0000000000e+00 +0.0000000000e+00 -4.6961260325e+01 4.8014164278e+01 1.0000000000e+01 0.0000e+00 0.0000e+00
500000001  1    1    0    0    0 -2.5300313902e+00 +4.0451141367e+00 +2.0598828594e+01 2.3389650417e+01 1.0000000000e+01 0.0000e+00 0.0000e+00
500000001  1    1    0    0    0 +2.5300313902e+00 -4.0451141367e+00 +2.6362431731e+01 2.8596185305e+01 1.0000000000e+01 0.0000e+00 0.0000e+00
</event>
<event>
 7      1 1.0000000e+00 -1.00000000e+00 -1.00000000e+00 -1.00000000e+00
       25 -1    0    0    0    0 +0.0000000000e+00 +0.0000000000e+00 +0.0000000000e+00 1.0000000000e+02 1.0000000000e+02 0.0000e+00 0.0000e+00
500000000  2    0    0    0    0 +0.0000000000e+00 +0.0000000000e+00 +2.1171509131e+01 3.3866897021e+01 2.6400000000e+01 0.0000e+00 0.0000e+00
500000000  2    0    0    0    0 +0.0000000000e+00 +0.0000000000e+00 -2.1171509131e+01 6.6133102979e+01 6.2700000000e+01 0.0000e+00 0.0000e+00
500000001  1    1    0    0    0 -6.1214303493e+00 -3.9139607666e+00 +4.5910611153e+00 1.3185933436e+01 1.0000000000e+01 0.0000e+00 0.0000e+00
500000001  1    1    0    0    0 +6.1214303493e+00 +3.9139607666e+00 +1.6580448016e+01 2.0680963585e+01 1.0000000000e+01 0.0000e+00 0.0000e+00
500000001  1    2    0    0    0 +2.6785798061e+01 +9.1752245012e+00 -1.5753440802e+01 3.3909211426e+01 1.0000000000e+01 0.0000e+00 0.0000e+00
500000002  1    2    0    0    0 -2.6785798061e+01 -9.1752245012e+00 -5.4180683286e+00 3.2223891553e+01 1.4400000000e+01 0.0000e+00 0.0000e+00
</event>
<event>
 5      1 1.0000000e+00 -1.00000000e+00 -1.00000000e+00 -1.00000000e+00
       25 -1    0    0    0    0 +0.0000000000e+00 +0.0000000000e+00 +0.0000000000e+00 1.0000000000e+02 1.0000000000e+02 0.0000e+00 0.0000e+00
500000000  2    0    0    0    0 +0.0000000000e+00 +0.0000000000e+00 +4.7200834014e+01 5.1751489851e+01 2.1200000000e+01 0.0000e+00 0.0000e+00
500000001  1    0    0    0    0 +0.0000000000e+00 +0.0000000000e+00 -4.7200834014e+01 4.8248510149e+01 1.0000000000e+01 0.0000e+00 0.0000e+00
500000001  1    1    0    0    0 +2.2412381683e+00 -1.0227342745e+00 +1.7380157782e+01 2.0202450803e+01 1.0000000000e+01 0.0000e+00 0.0000e+00
500000001  1    1    0    0    0 -2.2412381683e+00 +1.0227342745e+00 +2.9820676232e+01 3.1549039048e+01 1.0000000000e+01 0.0000e+00 0.0000e+00
</event>
<event>
 5      1 1.0000000e+00 -1.00000000e+00 -1.00000000e+00 -1.00000000e+00
       25 -1    0    0    0    0 +0.0000000000e+00 +0.0000000000e+00 +0.0000000000e+00 1.0000000000e+02 1.0000000000e+02 0.0000e+00 0.0000e+00
500000000  2    0    0    0    0 +0.0000000000e+00 +0.0000000000e+00 +3.9392820375e+01 5.8057726610e+01 4.2600000000e+01 0.0000e+00 0.0000e+00
500000002  1    0    0    0    0 +0.0000000000e+00 +0.0000000000e+00 -3.9392820375e+01 4.1942273390e+01 1.4400000000e+01 0.0000e+00 0.0000e+00
500000005  1    1    0    0    0 +8.0151773149e+00 -9.4924182475e-02 +3.5887657738e+01 4.1208446415e+01 1.8600000000e+01 0.0000e+00 0.0000e+00
500000002  1    1    0    0    0 -8.0151773149e+00 +9.4924182475e-02 +3.5051626374e+00 1.6849280195e+01 1.4400000000e+01 0.0000e+00 0.0000e+00
</event>
<event>
 7      1 1.0000000e+00 -1.00000000e+00 -1.00000000e+00 -1.00000000e+00
       25 -1    0    0    0    0 +0.0000000000e+00 +0.0000000000e+00 +0.0000000000e+00 1.0000000000e+02 1.0000000000e+02 0.0000e+00 0.0000e+00
500000002  1    0    0    0    0 +0.0000000000e+00 +0.0000000000e+00 +2.8169529411e+01 3.1636725293e+01 1.4400000000e+01 0.0000e+00 0.0000e+00
500000000  2    0    0    0    0 +0.0000000000e+00 +0.0000000000e+00 -2.8169529411e+01 6.8363274707e+01 6.2300000000e+01 0.0000e+00 0.0000e+00
500000002  1    2    0    0    0 -3.3530682812e+00 -1.4483950781e+01 +3.0879379683e-01 2.0699836974e+01 1.4400000000e+01 0.0000e+00 0.0000e+00
500000000  2    2    0    0    0 +3.3530682812e+00 +1.4483950781e+01 -2.8478323208e+01 4.7663437734e+01 3.5200000000e+01 0.0000e+00 0.0000e+00
500000002  1    4    0    0    0 -2.8567928649e+00 +1.6364356833e+01 -1.2954020638e+01 2.5517054899e+01 1.4400000000e+01 0.0000e+00 0.0000e+00
500000002  1    4    0    0    0 +6.2098611461e+00 -1.8804060519e+00 -1.5524302569e+01 2.2146382834e+01 1.4400000000e+01 0.0000e+00 0.0000e+00
</event>
<event>
 3      1 1.0000000e+00 -1.00000000e+00 -1.00000000e+00 -1.00000000e+00
       25 -1    0    0    0    0 +0.0000000000e+00 +0.0000000000e+00 +0.0000000000e+00 1.0000000000e+02 1.0000000000e+02 0.0000e+00 0.0000e+00
500000001  1    0    0    0    0 +0.0000000000e+00 +0.0000000000e+00 +4.8989794856e+01 5.0000000000e+01 1.0000000000e+01 0.0000e+00 0.0000e+00
500000001  1    0    0    0    0 +0.0000000000e+00 +0.0000000000e+00 -4.8989794856e+01 5.0000000000e+01 1.0000000000e+01 0.0000e+00 0.0000e+00
</event>
<event>
 3      1 1.0000000e+00 -1.00000000e+00 -1.00000000e+00 -1.00000000e+00
       25 -1    0    0    0    0 +0.0000000000e+00 +0.0000000000e+00 +0.0000000000e+00 1.0000000000e+02 1.0000000000e+02 0.0000e+00 0.0000e+00
500000001  1    0    0    0    0 +0.0000000000e+00 +0.0000000000e+00 +4.8441801724e+01 4.9463200000e+01 1.0000000000e+01 0.0000e+00 0.0000e+00
500000002  1    0    0    0    0 +0.0000000000e+00 +0.0000000000e+00 -4.8441801724e+01 5.0536800000e+01 1.4400000000e+01 0.0000e+00 0.0000e+00
</event>
<event>
 7      1 1.0000000e+00 -1.00000000e+00 -1.00000000e+00 -1.00000000e+00
       25 -1    0    0    0    0 +0.0000000000e+00 +0.0000000000e+00 +0.0000000000e+00 1.0000000000e+02 1.0000000000e+02 0.0000e+00 0.0000e+00
500000000  2    0    0    0    0 +0.0000000000e+00 +0.0000000000e+00 +4.0247542769e+01 4.8716508836e+01 2.7400000000e+01 0.0000e+00 0.0000e+00
500000000  2    0    0    0    0 +0.0000000000e+00 +0.0000000000e+00 -4.0247542769e+01 5.1283491164e+01 3.1800000000e+01 0.0000e+00 0.0000e+00
500000001  1    1    0    0    0 -2.8312456175e+00 -5.4670859398e+00 +1.8628666165e+01 2.2021175798e+01 1.0000000000e+01 0.0000e+00 0.0000e+00
500000002  1    1    0    0    0 +2.8312456175e+00 +5.4670859398e+00 +2.1618876604e+01 2.6695333039e+01 1.4400000000e+01 0.0000e+00 0.0000e+00
500000001  1    2    0    0    0 +2.2619939669e+00 -9.7491330937e+00 -1.5980372970e+01 2.1343254977e+01 1.0000000000e+01 0.0000e+00 0.0000e+00
500000002  1    2    0    0    0 -2.2619939669e+00 +9.7491330937e+00 -2.4267169800e+01 2.9940236186e+01 1.4400000000e+01 0.0000e+00 0.0000e+00
</event>
<event>
 3      1 1.0000000e+00 -1.00000000e+00 -1.00000000e+00 -1.00000000e+00
       25 -1    0    0    0    0 +0.0000000000e+00 +0.0000000000e+00 +0.0000000000e+00 1.0000000000e+02 1.0000000000e+02 0.0000e+00 0.0000e+00
500000005  1    0    0    0    0 +0.0000000000e+00 +0.0000000000e+00 +4.7157398667e+01 5.0693000000e+01 1.8600000000e+01 0.0000e+00 0.0000e+00
500000002  1    0    0    0    0 +0.0000000000e+00 +0.0000000000e+00 -4.7157398667e+01 4.9307000000e+01 1.4400000000e+01 0.0000e+00 0.0000e+00
</event>
<event>
 5      1 1.0000000e+00 -1.00000000e+00 -1.00000000e+00 -1.00000000e+00
       25 -1    0    0    0    0 +0.0000000000e+00 +0.0000000000e+00 +0.0000000000e+00 1.0000000000e+02 1.0000000000e+02 0.0000e+00 0.0000e+00
500000000  2    0    0    0    0 +0.0000000000e+00 +0.0000000000e+00 +4.3381391600e+01 5.2799309993e+01 3.0100000000e+01 0.0000e+00 0.0000e+00
500000005  1    0    0    0    0 +0.0000000000e+00 +0.0000000000e+00 -4.3381391600e+01 4.7200690007e+01 1.8600000000e+01 0.0000e+00 0.0000e+00
500000001  1    1    0    0    0 -5.8732069063e-02 +4.1176152107e+00 +4.0047983350e+01 4.1482516496e+01 1.0000000000e+01 0.0000e+00 0.0000e+00
500000001  1    1    0    0    0 +5.8732069063e-02 -4.1176152107e+00 +3.3334082505e+00 1.1316793497e+01 1.0000000000e+01 0.0000e+00 0.0000e+00
</event>
<event>
 7      1 1.0000000e+00 -1.00000000e+00 -1.00000000e+00 -1.00000000e+00
       25 -1    0    0    0    0 +0.0000000000e+00 +0.0000000000e+00 +0.0000000000e+00 1.0000000000e+02 1.0000000000e+02 0.0000e+00 0.0000e+00
500000000  2    0    0    0    0 +0.0000000000e+00 +0.0000000000e+00 +4.2301782990e+01 5.6532301141e+01 3.7500000000e+01 0.0000e+00 0.0000e+00
500000001  1    0    0    0    0 +0.0000000000e+00 +0.0000000000e+00 -4.2301782990e+01 4.3467698859e+01 1.0000000000e+01 0.0000e+00 0.0000e+00
500000001  1    1    0    0    0 -1.7571514075e+00 +3.0756133875e-01 +3.1558457672e+00 1.0636801096e+01 1.0000000000e+01 0.0000e+00 0.0000e+00
500000000  2    1    0    0    0 +1.7571514075e+00 -3.0756133875e-01 +3.9145937222e+01 4.5895500045e+01 2.3900000000e+01 0.0000e+00 0.0000e+00
500000001  1    4    0    0    0 -1.3301373405e+00 +1.5430251188e+00 +3.0602418963e+01 3.2259234930e+01 1.0000000000e+01 0.0000e+00 0.0000e+00
500000001  1    4    0    0    0 +3.0872887480e+00 -1.8505864576e+00 +8.5435182590e+00 1.3636265115e+01 1.0000000000e+01 0.0000e+00 0.0000e+00
</event>
<event>
 7      1 1.0000000e+00 -1.00000000e+00 -1.00000000e+00 -1.00000000e+00
       25 -1    0    0    0    0 +0.0000000000e+00 +0.0000000000e+00 +0.0000000000e+00 1.0000000000e+02 1.0000000000e+02 0.0000e+00 0.0000e+00
500000000  2    0    0    0    0 +0.0000000000e+00 +0.0000000000e+00 +3.0163902028e+01 5.9901171220e+01 5.1800000000e+01 0.0000e+00 0.0000e+00
500000000  2    0    0    0    0 +0.0000000000e+00 +0.0000000000e+00 -3.0163902028e+01 4.0098828780e+01 2.6400000000e+01 0.0000e+00 0.0000e+00
500000001  1    1    0    0    0 -1.0899097843e+01 +1.4006526345e+01 +3.0927806771e+01 3.7033800044e+01 1.0000000000e+01 0.0000e+00 0.0000e+00
500000002  1    1    0    0    0 +1.0899097843e+01 -1.4006526345e+01 -7.6390474252e-01 2.2867371176e+01 1.4400000000e+01 0.0000e+00 0.0000e+00
500000001  1    2    0    0    0 +4.1665748618e+00 +2.8028678479e+00 -4.4258419354e+00 1.2033473775e+01 1.0000000000e+01 0.0000e+00 0.0000e+00
500000001  1    2    0    0    0 -4.1665748618e+00 -2.8028678479e+00 -2.5738060093e+01 2.8065355006e+01 1.0000000000e+01 0.0000e+00 0.0000e+00
</event>
<event>
 3      1 1.0000000e+00 -1.00000000e+00 -1.00000000e+00 -1.00000000e+00
       25 -1    0    0    0    0 +0.0000000000e+00 +0.0000000000e+00 +0.0000000000e+00 1.0000000000e+02 1.0000000000e+02 0.0000e+00 0.0000e+00
500000002  1    0    0    0    0 +0.0000000000e+00 +0.0000000000e+00 +4.7309614739e+01 4.9452600000e+01 1.4400000000e+01 0.0000e+00 0.0000e+00
500000004  1    0    0    0    0 +0.0000000000e+00 +0.0000000000e+00 -4.7309614739e+01 5.0547400000e+01 1.7800000000e+01 0.0000e+00 0.0000e+00
</event>
<event>
 5      1 1.0000000e+00 -1.00000000e+00 -1.00000000e+00 -1.00000000e+00
       25 -1    0    0    0    0 +0.0000000000e+00 +0.0000000000e+00 +0.0000000000e+00 1.0000000000e+02 1.0000000000e+02 0.0000e+00 0.0000e+00
500000002  1    0    0    0    0 +0.0000000000e+00 +0.0000000000e+00 +3.3866428080e+01 3.6800746608e+01 1.4400000000e+01 0.0000e+00 0.0000e+00
500000000  2    0    0    0    0 +0.0000000000e+00 +0.0000000000e+00 -3.3866428080e+01 6.3199253392e+01 5.3400000000e+01 0.0000e+00 0.0000e+00
500000002  1    2    0    0    0 -2.0806967338e+00 -5.4344623716e-01 -4.5462252971e+01 4.7736789565e+01 1.4400000000e+01 0.0000e+00 0.0000e+00
500000001  1    2    0    0    0 +2.0806967338e+00 +5.4344623716e-01 +1.1595824891e+01 1.5462463827e+01 1.0000000000e+01 0.0000e+00 0.0000e+00
</event>
<event>
 5      1 1.0000000e+00 -1.00000000e+00 -1.00000000e+00 -1.00000000e+00
       25 -1    0    0    0    0 +0.0000000000e+00 +0.0000000000e+00 +0.0000000000e+00 1.0000000000e+02 1.0000000000e+02 0.0000e+00 0.0000e+00
500000000  2    0    0    0    0 +0.0000000000e+00 +0.0000000000e+00 +4.0446313611e+01 5.8335815324e+01 4.2000000000e+01 0.0000e+00 0.0000e+00
500000001  1    0    0    0    0 +0.0000000000e+00 +0.0000000000e+00 -4.0446313611e+01 4.1664184676e+01 1.0000000000e+01 0.0000e+00 0.0000e+00
500000001  1    1    0    0    0 +4.1280098457e+00 -5.8192345133e+00 -2.4515461562e+00 1.2526533206e+01 1.0000000000e+01 0.0000e+00 0.0000e+00
500000002  1    1    0    0    0 -4.1280098457e+00 +5.8192345133e+00 +4.2897859767e+01 4.5809282118e+01 1.4400000000e+01 0.0000e+00 0.0000e+00
</event>
<event>
 5      1 1.0000000e+00 -1.00000000e+00 -1.00000000e+00 -1.00000000e+00
       25 -1    0    0    0    0 +0.0000000000e+00 +0.0000000000e+00 +0.0000000000e+00 1.0000000000e+02 1.0000000000e+02 0.0000e+00 0.0000e+00
500000000  2    0    0    0    0 +0.0000000000e+00 +0.0000000000e+00 +4.0846202798e+01 5.7947505627e+01 4.1100000000e+01 0.0000e+00 0.0000e+00
500000001  1    0    0    0    0 +0.0000000000e+00 +0.0000000000e+00 -4.0846202798e+01 4.2052494373e+01 1.0000000000e+01 0.0000e+00 0.0000e+00
500000001  1    1    0    0    0 +1.4727242944e+01 -5.6196397793e+00 +8.3035300758e+00 2.0430874864e+01 1.0000000000e+01 0.0000e+00 0.0000e+00
500000001  1    1    0    0    0 -1.4727242944e+01 +5.6196397793e+00 +3.2542672722e+01 3.7516630764e+01 1.0000000000e+01 0.0000e+00 0.0000e+00
</event>
<event>
 3      1 1.0000000e+00 -1.00000000e+00 -1.00000000e+00 -1.00000000e+00
       25 -1    0    0    0    0 +0.0000000000e+00 +0.0000000000e+00 +0.0000000000e+00 1.0000000000e+02 1.0000000000e+02 0.0000e+00 0.0000e+00
500000002  1    0    0    0    0 +0.0000000000e+00 +0.0000000000e+00 +4.7709768851e+01 4.9835550000e+01 1.4400000000e+01 0.0000e+00 0.0000e+00
500000003  1    0    0    0    0 +0.0000000000e+00 +0.0000000000e+00 -4.7709768851e+01 5.0164450000e+01 1.5500000000e+01 0.0000e+00 0.0000e+00
</event>
<event>
 5      1 1.0000000e+00 -1.00000000e+00 -1.00000000e+00 -1.00000000e+00
       25 -1    0    0    0    0 +0.0000000000e+00 +0.0000000000e+00 +0.0000000000e+00 1.0000000000e+02 1.0000000000e+02 0.0000e+00 0.0000e+00
500000000  2    0    0    0    0 +0.0000000000e+00 +0.0000000000e+00 +4.3814700657e+01 5.3879635803e+01 3.1400000000e+01 0.0000e+00 0.0000e+00
500000002  1    0    0    0    0 +0.0000000000e+00 +0.0000000000e+00 -4.3814700657e+01 4.6120364197e+01 1.4400000000e+01 0.0000e+00 0.0000e+00
500000001  1    1    0    0    0 +7.1184871098e+00 -6.8614264926e+00 +3.3820330936e+01 3.6627405270e+01 1.0000000000e+01 0.0000e+00 0.0000e+00
500000001  1    1    0    0    0 -7.1184871098e+00 +6.8614264926e+00 +9.9943697210e+00 1.7252230533e+01 1.0000000000e+01 0.0000e+00 0.0000e+00
</event>
<event>
 3      1 1.0000000e+00 -1.00000000e+00 -1.00000000e+00 -1.00000000e+00
       25 -1    0    0    0    0 +0.0000000000e+00 +0.0000000000e+00 +0.0000000000e+00 1.0000000000e+02 1.0000000000e+02 0.0000e+00 0.0000e+00
500000002  1    0    0    0    0 +0.0000000000e+00 +0.0000000000e+00 +4.8441801724e+01 5.0536800000e+01 1.4400000000e+01 0.0000e+00 0.0000e+00
500000001  1    0    0    0    0 +0.0000000000e+00 +0.0000000000e+00 -4.8441801724e+01 4.9463200000e+01 1.0000000000e+01 0.0000e+00 0.0000e+00
</event>
<event>
 3      1 1.0000000e+00 -1.00000000e+00 -1.00000000e+00 -1.00000000e+00
       25 -1    0    0    0    0 +0.0000000000e+00 +0.0000000000e+00 +0.0000000000e+00 1.0000000000e+02 1.0000000000e+02 0.0000e+00 0.0000e+00
500000004  1    0    0    0    0 +0.0000000000e+00 +0.0000000000e+00 +4.7133869465e+01 5.0382950000e+01 1.7800000000e+01 0.0000e+00 0.0000e+00
500000003  1    0    0    0    0 +0.0000000000e+00 +0.0000000000e+00 -4.7133869465e+01 4.9617050000e+01 1.5500000000e+01 0.0000e+00 0.0000e+00
</event>
<event>
 5      1 1.0000000e+00 -1.00000000e+00 -1.00000000e+00 -1.00000000e+00
       25 -1    0    0    0    0 +0.0000000000e+00 +0.0000000000e+00 +0.0000000000e+00 1.0000000000e+02 1.0000000000e+02 0.0000e+00 0.0000e+00
500000000  2    0    0    0    0 +0.0000000000e+00 +0.0000000000e+00 +2.5558027347e+01 6.8390305888e+01 6.3400000000e+01 0.0000e+00 0.0000e+00
500000005  1    0    0    0    0 +0.0000000000e+00 +0.0000000000e+00 -2.5558027347e+01 3.1609694112e+01 1.8600000000e+01 0.0000e+00 0.0000e+00
500000002  1    1    0    0    0 +1.9462976810e+01 +1.0849430489e+01 -5.9605588460e+00 2.7192018498e+01 1.4400000000e+01 0.0000e+00 0.0000e+00
500000002  1    1    0    0    0 -1.9462976810e+01 -1.0849430489e+01 +3.1518586193e+01 4.1198287390e+01 1.4400000000e+01 0.0000e+00 0.0000e+00
</event>
<event>
 3      1 1.0000000e+00 -1.00000000e+00 -1.00000000e+00 -1.00000000e+00
       25 -1    0    0    0    0 +0.0000000000e+00 +0.0000000000e+00 +0.0000000000e+00 1.0000000000e+02 1.0000000000e+02 0.0000e+00 0.0000e+00
500000002  1    0    0    0    0 +0.0000000000e+00 +0.0000000000e+00 +4.7309614739e+01 4.9452600000e+01 1.4400000000e+01 0.0000e+00 0.0000e+00
500000004  1    0    0    0    0 +0.0000000000e+00 +0.0000000000e+00 -4.7309614739e+01 5.0547400000e+01 1.7800000000e+01 0.0000e+00 0.0000e+00
</event>
<event>
 7      1 1.0000000e+00 -1.00000000e+00 -1.00000000e+00 -1.00000000e+00
       25 -1    0    0    0    0 +0.0000000000e+00 +0.0000000000e+00 +0.0000000000e+00 1.0000000000e+02 1.0000000000e+02 0.0000e+00 0.0000e+00
500000002  1    0    0    0    0 +0.0000000000e+00 +0.0000000000e+00 +3.0962952504e+01 3.4147685540e+01 1.4400000000e+01 0.0000e+00 0.0000e+00
500000000  2    0    0    0    0 +0.0000000000e+00 +0.0000000000e+00 -3.0962952504e+01 6.5852314460e+01 5.8100000000e+01 0.0000e+00 0.0000e+00
500000000  2    2    0    0    0 +1.2761994893e+00 -3.0738738034e+00 -3.2894569731e+01 4.6858406742e+01 3.3200000000e+01 0.0000e+00 0.0000e+00
500000005  1    2    0    0    0 -1.2761994893e+00 +3.0738738034e+00 +1.9316172276e+00 1.8993907718e+01 1.8600000000e+01 0.0000e+00 0.0000e+00
500000002  1    3    0    0    0 +4.1161589048e+00 -4.2859373837e-01 -3.2878720947e+01 3.6131658526e+01 1.4400000000e+01 0.0000e+00 0.0000e+00
500000001  1    3    0    0    0 -2.8399594155e+00 -2.6452800651e+00 -1.5848784289e-02 1.0726748216e+01 1.0000000000e+01 0.0000e+00 0.0000e+00
</event>
<event>
 5      1 1.0000000e+00 -1.00000000e+00 -1.00000000e+00 -1.00000000e+00
       25 -1    0    0    0    0 +0.0000000000e+00 +0.0000000000e+00 +0.0000000000e+00 1.0000000000e+02 1.0000000000e+02 0.0000e+00 0.0000e+00
500000000  2    0    0    0    0 +0.0000000000e+00 +0.0000000000e+00 +4.2305678550e+01 5.6528510060e+01 3.7500000000e+01 0.0000e+00 0.0000e+00
500000001  1    0    0    0    0 +0.0000000000e+00 +0.0000000000e+00 -4.2305678550e+01 4.3471489940e+01 1.0000000000e+01 0.0000e+00 0.0000e+00
500000001  1    1    0    0    0 -1.3301428380e+01 -3.9372659105e+00 +1.5445471501e+01 2.3043277755e+01 1.0000000000e+01 0.0000e+00 0.0000e+00
500000002  1    1    0    0    0 +1.3301428380e+01 +3.9372659105e+00 +2.6860207049e+01 3.3485232305e+01 1.4400000000e+01 0.0000e+00 0.0000e+00
</event>
<event>
 5      1 1.0000000e+00 -1.00000000e+00 -1.00000000e+00 -1.00000000e+00
       25 -1    0    0    0    0 +0.0000000000e+00 +0.0000000000e+00 +0.0000000000e+00 1.0000000000e+02 1.0000000000e+02 0.0000e+00 0.0000e+00
500000001  1    0    0    0    0 +0.0000000000e+00 +0.0000000000e+00 +2.6034509245e+01 2.7888988358e+01 1.0000000000e+01 0.0000e+00 0.0000e+00
500000000  2    0    0    0    0 +0.0000000000e+00 +0.0000000000e+00 -2.6034509245e+01 7.2111011642e+01 6.7200000000e+01 0.0000e+00 0.0000e+00
500000002  1    2    0    0    0 +3.9357341828e+00 +1.5923154074e+01 -4.1868503801e+01 4.7216188429e+01 1.4400000000e+01 0.0000e+00 0.0000e+00
500000001  1    2    0    0    0 -3.9357341828e+00 -1.5923154074e+01 +1.5833994556e+01 2.4894823214e+01 1.0000000000e+01 0.0000e+00 0.0000e+00
</event>
<event>
 5      1 1.0000000e+00 -1.00000000e+00 -1.00000000e+00 -1.00000000e+00
       25 -1    0    0    0    0 +0.0000000000e+00 +0.0000000000e+00 +0.0000000000e+00 1.0000000000e+02 1.0000000000e+02 0.0000e+00 0.0000e+00
500000002  1    0    0    0    0 +0.0000000000e+00 +0.0000000000e+00 +4.3174795399e+01 4.5512887820e+01 1.4400000000e+01 0.0000e+00 0.0000e+00
500000000  2    0    0    0    0 +0.0000000000e+00 +0.0000000000e+00 -4.3174795399e+01 5.4487112180e+01 3.3200000000e+01 0.0000e+00 0.0000e+00
500000002  1    2    0    0    0 -8.8097469942e+00 -6.6760135555e+00 -2.0872953188e+01 2.7662627747e+01 1.4400000000e+01 0.0000e+00 0.0000e+00
500000001  1    2    0    0    0 +8.8097469942e+00 +6.6760135555e+00 -2.2301842211e+01 2.6824484433e+01 1.0000000000e+01 0.0000e+00 0.0000e+00
</event>
<event>
 5      1 1.0000000e+00 -1.00000000e+00 -1.00000000e+00 -1.00000000e+00
       25 -1    0    0    0    0 +0.0000000000e+00 +0.0000000000e+00 +0.0000000000e+00 1.0000000000e+02 1.0000000000e+02 0.0000e+00 0.0000e+00
500000000  2    0    0    0    0 +0.0000000000e+00 +0.0000000000e+00 +4.1474469423e+01 5.4545719520e+01 3.5400000000e+01 0.0000e+00 0.0000e+00
500000005  1    0    0    0    0 +0.0000000000e+00 +0.0000000000e+00 -4.1474469423e+01 4.5454280480e+01 1.8600000000e+01 0.0000e+00 0.0000e+00
500000002  1    1    0    0    0 -5.6209940966e+00 -5.4946214821e+00 +3.1022891324e+01 3.5093677863e+01 1.4400000000e+01 0.0000e+00 0.0000e+00
500000002  1    1    0    0    0 +5.6209940966e+00 +5.4946214821e+00 +1.0451578099e+01 1.9452041657e+01 1.4400000000e+01 0.0000e+00 0.0000e+00
</event>
<event>
 3      1 1.0000000e+00 -1.00000000e+00 -1.00000000e+00 -1.00000000e+00
       25 -1    0    0    0    0 +0.0000000000e+00 +0.0000000000e+00 +0.0000000000e+00 1.0000000000e+02 1.0000000000e+02 0.0000e+00 0.0000e+00
500000002  1    0    0    0    0 +0.0000000000e+00 +0.0000000000e+00 +4.8441801724e+01 5.0536800000e+01 1.4400000000e+01 0.0000e+00 0.0000e+00
500000001  1    0    0    0    0 +0.0000000000e+00 +0.0000000000e+00 -4.8441801724e+01 4.9463200000e+01 1.0000000000e+01 0.0000e+00 0.0000e+00
</event>
<event>
 5      1 1.0000000e+00 -1.00000000e+00 -1.00000000e+00 -1.00000000e+00
       25 -1    0    0    0    0 +0.0000000000e+00 +0.0000000000e+00 +0.0000000000e+00 1.0000000000e+02 1.0000000000e+02 0.0000e+00 0.0000e+00
500000000  2    0    0    0    0 +0.0000000000e+00 +0.0000000000e+00 +4.6464219118e+01 5.2471864562e+01 2.4400000000e+01 0.0000e+00 0.0000e+00
500000001  1    0    0    0    0 +0.0000000000e+00 +0.0000000000e+00 -4.6464219118e+01 4.7528135438e+01 1.0000000000e+01 0.0000e+00 0.0000e+00
500000001  1    1    0    0    0 -1.5876082182e+00 +4.6826090356e+00 +3.3808042758e+01 3.5600998334e+01 1.0000000000e+01 0.0000e+00 0.0000e+00
500000001  1    1    0    0    0 +1.5876082182e+00 -4.6826090356e+00 +1.2656176359e+01 1.6870866228e+01 1.0000000000e+01 0.0000e+00 0.0000e+00
</event>
<event>
 5      1 1.0000000e+00 -1.00000000e+00 -1.00000000e+00 -1.00000000e+00
       25 -1    0    0    0    0 +0.0000000000e+00 +0.0000000000e+00 +0.0000000000e+00 1.0000000000e+02 1.0000000000e+02 0.0000e+00 0.0000e+00
500000002  1    0    0    0    0 +0.0000000000e+00 +0.0000000000e+00 +4.6419397008e+01 4.8601650369e+01 1.4400000000e+01 0.0000e+00 0.0000e+00
500000000  2    0    0    0    0 +0.0000000000e+00 +0.0000000000e+00 -4.6419397008e+01 5.1398349631e+01 2.2100000000e+01 0.0000e+00 0.0000e+00
500000001  1    2    0    0    0 +2.7181348617e-01 +6.5006685943e-01 -1.2470711485e+01 1.6000472319e+01 1.0000000000e+01 0.0000e+00 0.0000e+00
500000001  1    2    0    0    0 -2.7181348617e-01 -6.5006685943e-01 -3.3948685523e+01 3.5397877312e+01 1.0000000000e+01 0.0000e+00 0.0000e+00
</event>
<event>
 3      1 1.0000000e+00 -1.00000000e+00 -1.00000000e+00 -1.00000000e+00
       25 -1    0    0    0    0 +0.0000000000e+00 +0.0000000000e+00 +0.0000000000e+00 1.0000000000e+02 1.0000000000e+02 0.0000e+00 0.0000e+00
500000001  1    0    0    0    0 +0.0000000000e+00 +0.0000000000e+00 +4.8989794856e+01 5.0000000000e+01 1.0000000000e+01 0.0000e+00 0.0000e+00
500000001  1    0    0    0    0 +0.0000000000e+00 +0.0000000000e+00 -4.8989794856e+01 5.0000000000e+01 1.0000000000e+01 0.0000e+00 0.0000e+00
</event>
<event>
 5      1 1.0000000e+00 -1.00000000e+00 -1.00000000e+00 -1.00000000e+00
       25 -1    0    0    0    0 +0.0000000000e+00 +0.0000000000e+00 +0.0000000000e+00 1.0000000000e+02 1.0000000000e+02 0.0000e+00 0.0000e+00
500000000  2    0    0    0    0 +0.0000000000e+00 +0.0000000000e+00 +4.5379791606e+01 5.2390279498e+01 2.6200000000e+01 0.0000e+00 0.0000e+00
500000002  1    0    0    0    0 +0.0000000000e+00 +0.0000000000e+00 -4.5379791606e+01 4.7609720502e+01 1.4400000000e+01 0.0000e+00 0.0000e+00
500000001  1    1    0    0    0 +2.8681176654e+00 -3.1122249566e+00 +1.5150663917e+01 1.8640135736e+01 1.0000000000e+01 0.0000e+00 0.0000e+00
500000002  1    1    0    0    0 -2.8681176654e+00 +3.1122249566e+00 +3.0229127689e+01 3.3750143762e+01 1.4400000000e+01 0.0000e+00 0.0000e+00
</event>
<event>
 5      1 1.0000000e+00 -1.00000000e+00 -1.00000000e+00 -1.00000000e+00
       25 -1    0    0    0    0 +0.0000000000e+00 +0.0000000000e+00 +0.0000000000e+00 1.0000000000e+02 1.0000000000e+02 0.0000e+00 0.0000e+00
500000002  1    0    0    0    0 +0.0000000000e+00 +0.0000000000e+00 +4.6303285347e+01 4.8490764419e+01 1.4400000000e+01 0.0000e+00 0.0000e+00
500000000  2    0    0    0    0 +0.0000000000e+00 +0.0000000000e+00 -4.6303285347e+01 5.1509235581e+01 2.2600000000e+01 0.0000e+00 0.0000e+00
500000001  1    2    0    0    0 +1.4911524129e+00 -3.2674047274e+00 -1.4488929237e+01 1.7967429966e+01 1.0000000000e+01 0.0000e+00 0.0000e+00
500000001  1    2    0    0    0 -1.4911524129e+00 +3.2674047274e+00 -3.1814356111e+01 3.3541805615e+01 1.0000000000e+01 0.0000e+00 0.0000e+00
</event>
<event>
 5      1 1.0000000e+00 -1.00000000e+00 -1.00000000e+00 -1.00000000e+00
       25 -1    0    0    0    0 +0.0000000000e+00 +0.0000000000e+00 +0.0000000000e+00 1.0000000000e+02 1.0000000000e+02 0.0000e+00 0.0000e+00
500000000  2    0    0    0    0 +0.0000000000e+00 +0.0000000000e+00 +4.4351756803e+01 5.4534866859e+01 3.1700000000e+01 0.0000e+00 0.0000e+00
500000001  1    0    0    0    0 +0.0000000000e+00 +0.0000000000e+00 -4.4351756803e+01 4.5465133141e+01 1.0000000000e+01 0.0000e+00 0.0000e+00
500000001  1    1    0    0    0 +7.3084226126e+00 -8.6990853665e+00 +3.0355984733e+01 3.3920096350e+01 1.0000000000e+01 0.0000e+00 0.0000e+00
500000001  1    1    0    0    0 -7.3084226126e+00 +8.6990853665e+00 +1.3995772070e+01 2.0614770509e+01 1.0000000000e+01 0.0000e+00 0.0000e+00
</event>
<event>
 3      1 1.0000000e+00 -1.00000000e+00 -1.00000000e+00 -1.00000000e+00
       25 -1    0    0    0    0 +0.0000000000e+00 +0.0000000000e+00 +0.0000000000e+00 1.0000000000e+02 1.0000000000e+02 0.0000e+00 0.0000e+00
500000002  1    0    0    0    0 +0.0000000000e+00 +0.0000000000e+00 +4.7157398667e+01 4.9307000000e+01 1.4400000000e+01 0.0000e+00 0.0000e+00
500000005  1    0    0    0    0 +0.0000000000e+00 +0.0000000000e+00 -4.7157398667e+01 5.0693000000e+01 1.8600000000e+01 0.0000e+00 0.0000e+00
</event>
<event>
 3      1 1.0000000e+00 -1.00000000e+00 -1.00000000e+00 -1.00000000e+00
       25 -1    0    0    0    0 +0.0000000000e+00 +0.0000000000e+00 +0.0000000000e+00 1.0000000000e+02 1.0000000000e+02 0.0000e+00 0.0000e+00
500000002  1    0    0    0    0 +0.0000000000e+00 +0.0000000000e+00 +4.8441801724e+01 5.0536800000e+01 1.4400000000e+01 0.0000e+00 0.0000e+00
500000001  1    0    0    0    0 +0.0000000000e+00 +0.0000000000e+00 -4.8441801724e+01 4.9463200000e+01 1.0000000000e+01 0.0000e+00 0.0000e+00
</event>
<event>
 5      1 1.0000000e+00 -1.00000000e+00 -1.00000000e+00 -1.00000000e+00
       25 -1    0    0    0    0 +0.0000000000e+00 +0.0000000000e+00 +0.0000000000e+00 1.0000000000e+02 1.0000000000e+02 0.0000e+00 0.0000e+00
500000000  2    0    0    0    0 +0.0000000000e+00 +0.0000000000e+00 +3.5407205641e+01 6.3207742509e+01 5.2400000000e+01 0.0000e+00 0.0000e+00
500000001  1    0    0    0    0 +0.0000000000e+00 +0.0000000000e+00 -3.5407205641e+01 3.6792257491e+01 1.0000000000e+01 0.0000e+00 0.0000e+00
500000001  1    1    0    0    0 +1.2325173476e+01 -1.0534836592e+01 -3.9751068959e+00 1.9460065726e+01 1.0000000000e+01 0.0000e+00 0.0000e+00
500000001  1    1    0    0    0 -1.2325173476e+01 +1.0534836592e+01 +3.9382312536e+01 4.3747676783e+01 1.0000000000e+01 0.0000e+00 0.0000e+00
</event>
<event>
 5      1 1.0000000e+00 -1.00000000e+00 -1.00000000e+00 -1.00000000e+00
       25 -1    0    0    0    0 +0.0000000000e+00 +0.0000000000e+00 +0.0000000000e+00 1.0000000000e+02 1.0000000000e+02 0.0000e+00 0.0000e+00
500000000  2    0    0    0    0 +0.0000000000e+00 +0.0000000000e+00 +4.6089333157e+01 5.2838292749e+01 2.5800000000e+01 0.0000e+00 0.0000e+00
500000001  1    0    0    0    0 +0.0000000000e+00 +0.0000000000e+00 -4.6089333157e+01 4.7161707251e+01 1.0000000000e+01 0.0000e+00 0.0000e+00
500000001  1    1    0    0    0 +5.3172125579e+00 +3.6896229988e+00 +3.3274995320e+01 3.5342769852e+01 1.0000000000e+01 0.0000e+00 0.0000e+00
500000001  1    1    0    0    0 -5.3172125579e+00 -3.6896229988e+00 +1.2814337837e+01 1.7495522897e+01 1.0000000000e+01 0.0000e+00 0.0000e+00
</event>
<event>
 5      1 1.0000000e+00 -1.00000000e+00 -1.00000000e+00 -1.00000000e+00
       25 -1    0    0    0    0 +0.0000000000e+00 +0.0000000000e+00 +0.0000000000e+00 1.0000000000e+02 1.0000000000e+02 0.0000e+00 0.0000e+00
500000000  2    0    0    0    0 +0.0000000000e+00 +0.0000000000e+00 +4.3462140973e+01 5.5402268018e+01 3.4400000000e+01 0.0000e+00 0.0000e+00
500000001  1    0    0    0    0 +0.0000000000e+00 +0.0000000000e+00 -4.3462140973e+01 4.4597731982e+01 1.0000000000e+01 0.0000e+00 0.0000e+00
500000001  1    1    0    0    0 -7.0639862053e+00 -3.9250920006e+00 +3.3592414859e+00 1.3288745301e+01 1.0000000000e+01 0.0000e+00 0.0000e+00
500000001  1    1    0    0    0 +7.0639862053e+00 +3.9250920006e+00 +4.0102899487e+01 4.2113522717e+01 1.0000000000e+01 0.0000e+00 0.0000e+00
</event>
<event>
 5      1 1.0000000e+00 -1.00000000e+00 -1.00000000e+00 -1.00000000e+00
       25 -1    0    0    0    0 +0.0000000000e+00 +0.0000000000e+00 +0.0000000000e+00 1.0000000000e+02 1.0000000000e+02 0.0000e+00 0.0000e+00
500000001  1    0    0    0    0 +0.0000000000e+00 +0.0000000000e+00 +3.9014504521e+01 4.0275694445e+01 1.0000000000e+01 0.0000e+00 0.0000e+00
500000000  2    0    0    0    0 +0.0000000000e+00 +0.0000000000e+00 -3.9014504521e+01 5.9724305555e+01 4.5200000000e+01 0.0000e+00 0.0000e+00
500000001  1    2    0    0    0 +1.0071009600e+01 +1.6774018564e+01 -2.6548492320e+01 3.4461795914e+01 1.0000000000e+01 0.0000e+00 0.0000e+00
500000001  1    2    0    0    0 -1.0071009600e+01 -1.6774018564e+01 -1.2466012202e+01 2.5262509641e+01 1.0000000000e+01 0.0000e+00 0.0000e+00
</event>
<event>
 7      1 1.0000000e+00 -1.00000000e+00 -1.00000000e+00 -1.00000000e+00
       25 -1    0    0    0    0 +0.0000000000e+00 +0.0000000000e+00 +0.0000000000e+00 1.0000000000e+02 1.0000000000e+02 0.0000e+00 0.0000e+00
500000000  2    0    0    0    0 +0.0000000000e+00 +0.0000000000e+00 +2.5055372292e+01 7.3022756244e+01 6.8600000000e+01 0.0000e+00 0.0000e+00
500000001  1    0    0    0    0 +0.0000000000e+00 +0.0000000000e+00 -2.5055372292e+01 2.6977243756e+01 1.0000000000e+01 0.0000e+00 0.0000e+00
500000001  1    1    0    0    0 +2.4186752308e+01 -1.3084154363e+01 +1.2289733043e+01 3.1736912592e+01 1.0000000000e+01 0.0000e+00 0.0000e+00
500000000  2    1    0    0    0 -2.4186752308e+01 +1.3084154363e+01 +1.2765639249e+01 4.1285843652e+01 2.8000000000e+01 0.0000e+00 0.0000e+00
500000001  1    4    0    0    0 -1.5617151317e+01 +9.9266781950e-01 +6.8169829235e+00 1.9782620171e+01 1.0000000000e+01 0.0000e+00 0.0000e+00
500000002  1    4    0    0    0 -8.5696009914e+00 +1.2091486543e+01 +5.9486563257e+00 2.1503223481e+01 1.4400000000e+01 0.0000e+00 0.0000e+00
</event>
<event>
 5      1 1.0000000e+00 -1.00000000e+00 -1.00000000e+00 -1.00000000e+00
       25 -1    0    0    0    0 +0.0000000000e+00 +0.0000000000e+00 +0.0000000000e+00 1.0000000000e+02 1.0000000000e+02 0.0000e+00 0.0000e+00
500000001  1    0    0    0    0 +0.0000000000e+00 +0.0000000000e+00 +4.4108667903e+01 4.5228028746e+01 1.0000000000e+01 0.0000e+00 0.0000e+00
500000000  2    0    0    0    0 +0.0000000000e+00 +0.0000000000e+00 -4.4108667903e+01 5.4771971254e+01 3.2500000000e+01 0.0000e+00 0.0000e+00
500000001  1    2    0    0    0 +3.0572899567e+00 -6.9617142836e+00 -2.9832115301e+01 3.2369238344e+01 1.0000000000e+01 0.0000e+00 0.0000e+00
500000003  1    2    0    0    0 -3.0572899567e+00 +6.9617142836e+00 -1.4276552602e+01 2.2402732910e+01 1.5500000000e+01 0.0000e+00 0.0000e+00
</event>
<event>
 5      1 1.0000000e+00 -1.00000000e+00 -1.00000000e+00 -1.00000000e+00
       25 -1    0    0    0    0 +0.0000000000e+00 +0.0000000000e+00 +0.0000000000e+00 1.0000000000e+02 1.0000000000e+02 0.0000e+00 0.0000e+00
500000005  1    0    0    0    0 +0.0000000000e+00 +0.0000000000e+00 +4.2967737543e+01 4.6820790997e+01 1.8600000000e+01 0.0000e+00 0.0000e+00
500000000  2    0    0    0    0 +0.0000000000e+00 +0.0000000000e+00 -4.2967737543e+01 5.3179209003e+01 3.1300000000e+01 0.0000e+00 0.0000e+00
500000001  1    2    0    0    0 +8.1454024830e-01 -2.1600387056e+00 -4.1573959413e+01 4.2821996034e+01 1.0000000000e+01 0.0000e+00 0.0000e+00
500000001  1    2    0    0    0 -8.1454024830e-01 +2.1600387056e+00 -1.3937781296e+00 1.0357212970e+01 1.0000000000e+01 0.0000e+00 0.0000e+00
</event>
<event>
 5      1 1.0000000e+00 -1.00000000e+00 -1.00000000e+00 -1.00000000e+00
       25 -1    0    0    0    0 +0.0000000000e+00 +0.0000000000e+00 +0.0000000000e+00 1.0000000000e+02 1.0000000000e+02 0.0000e+00 0.0000e+00
500000000  2    0    0    0    0 +0.0000000000e+00 +0.0000000000e+00 +4.3848815751e+01 5.5025355557e+01 3.3200000000e+01 0.0000e+00 0.0000e+00
500000001  1    0    0    0    0 +0.0000000000e+00 +0.0000000000e+00 -4.3848815751e+01 4.4974644443e+01 1.0000000000e+01 0.0000e+00 0.0000e+00
500000002  1    1    0    0    0 -4.1430441777e-01 +6.4667207680e+00 +1.3336520635e+01 2.0669129355e+01 1.4400000000e+01 0.0000e+00 0.0000e+00
500000002  1    1    0    0    0 +4.1430441777e-01 -6.4667207680e+00 +3.0512295116e+01 3.4356226202e+01 1.4400000000e+01 0.0000e+00 0.0000e+00
</event>
<event>
 5      1 1.0000000e+00 -1.00000000e+00 -1.00000000e+00 -1.00000000e+00
       25 -1    0    0    0    0 +0.0000000000e+00 +0.0000000000e+00 +0.0000000000e+00 1.0000000000e+02 1.0000000000e+02 0.0000e+00 0.0000e+00
500000000  2    0    0    0    0 +0.0000000000e+00 +0.0000000000e+00 +4.5542837084e+01 5.0805386375e+01 2.2500000000e+01 0.0000e+00 0.0000e+00
500000005  1    0    0    0    0 +0.0000000000e+00 +0.0000000000e+00 -4.5542837084e+01 4.9194613625e+01 1.8600000000e+01 0.0000e+00 0.0000e+00
500000001  1    1    0    0    0 +2.1555839388e+00 -4.4883721223e+00 +1.9606778898e+01 2.2565854852e+01 1.0000000000e+01 0.0000e+00 0.0000e+00
500000001  1    1    0    0    0 -2.1555839388e+00 +4.4883721223e+00 +2.5936058186e+01 2.8239531523e+01 1.0000000000e+01 0.0000e+00 0.0000e+00
</event>
<event>
 5      1 1.0000000e+00 -1.00000000e+00 -1.00000000e+00 -1.00000000e+00
       25 -1    0    0    0    0 +0.0000000000e+00 +0.0000000000e+00 +0.0000000000e+00 1.0000000000e+02 1.0000000000e+02 0.0000e+00 0.0000e+00
500000000  2    0    0    0    0 +0.0000000000e+00 +0.0000000000e+00 +3.2237567297e+01 6.6247063161e+01 5.7900000000e+01 0.0000e+00 0.0000e+00
500000001  1    0    0    0    0 +0.0000000000e+00 +0.0000000000e+00 -3.2237567297e+01 3.3752936839e+01 1.0000000000e+01 0.0000e+00 0.0000e+00
500000006  1    1    0    0    0 +2.0399568112e+01 +9.3877008372e-01 +6.3241607342e+00 3.0248614471e+01 2.1400000000e+01 0.0000e+00 0.0000e+00
500000002  1    1    0    0    0 -2.0399568112e+01 -9.3877008372e-01 +2.5913406563e+01 3.5998448690e+01 1.4400000000e+01 0.0000e+00 0.0000e+00
</event>
<event>
 5      1 1.0000000e+00 -1.00000000e+00 -1.00000000e+00 -1.00000000e+00
       25 -1    0    0    0    0 +0.0000000000e+00 +0.0000000000e+00 +0.0000000000e+00 1.0000000000e+02 1.0000000000e+02 0.0000e+00 0.0000e+00
500000000  2    0    0    0    0 +0.0000000000e+00 +0.0000000000e+00 +4.4346908933e+01 5.4539595999e+01 3.1700000000e+01 0.0000e+00 0.0000e+00
500000001  1    0    0    0    0 +0.0000000000e+00 +0.0000000000e+00 -4.4346908933e+01 4.5460404001e+01 1.0000000000e+01 0.0000e+00 0.0000e+00
500000002  1    1    0    0    0 -6.4924958019e+00 +2.0788516203e+00 +3.7239029356e+01 4.0504066872e+01 1.4400000000e+01 0.0000e+00 0.0000e+00
500000001  1    1    0    0    0 +6.4924958019e+00 -2.0788516203e+00 +7.1078795766e+00 1.4035529127e+01 1.0000000000e+01 0.0000e+00 0.0000e+00
</event>
<event>
 5      1 1.0000000e+00 -1.00000000e+00 -1.00000000e+00 -1.00000000e+00
       25 -1    0    0    0    0 +0.0000000000e+00 +0.0000000000e+00 +0.0000000000e+00 1.0000000000e+02 1.0000000000e+02 0.0000e+00 0.0000e+00
500000000  2    0    0    0    0 +0.0000000000e+00 +0.0000000000e+00 +2.1401298502e+01 7.2163772210e+01 6.8900000000e+01 0.0000e+00 0.0000e+00
500000004  1    0    0    0    0 +0.0000000000e+00 +0.0000000000e+00 -2.1401298502e+01 2.7836227790e+01 1.7800000000e+01 0.0000e+00 0.0000e+00
500000001  1    1    0    0    0 +2.4775786492e+01 +1.7634085003e+01 -4.9962745903e-01 3.2016404823e+01 1.0000000000e+01 0.0000e+00 0.0000e+00
500000002  1    1    0    0    0 -2.4775786492e+01 -1.7634085003e+01 +2.1900925961e+01 4.0147367387e+01 1.4400000000e+01 0.0000e+00 0.0000e+00
</event>
<event>
 3      1 1.0000000e+00 -1.00000000e+00 -1.00000000e+00 -1.00000000e+00
       25 -1    0    0    0    0 +0.0000000000e+00 +0.0000000000e+00 +0.0000000000e+00 1.0000000000e+02 1.0000000000e+02 0.0000e+00 0.0000e+00
500000003  1    0    0    0    0 +0.0000000000e+00 +0.0000000000e+00 +4.7709768851e+01 5.0164450000e+01 1.5500000000e+01 0.0000e+00 0.0000e+00
500000002  1    0    0    0    0 +0.0000000000e+00 +0.0000000000e+00 -4.7709768851e+01 4.9835550000e+01 1.4400000000e+01 0.0000e+00 0.0000e+00
</event>
<event>
 3      1 1.0000000e+00 -1.00000000e+00 -1.00000000e+00 -1.00000000e+00
       25 -1    0    0    0    0 +0.0000000000e+00 +0.0000000000e+00 +0.0000000000e+00 1.0000000000e+02 1.0000000000e+02 0.0000e+00 0.0000e+00
500000007  1    0    0    0    0 +0.0000000000e+00 +0.0000000000e+00 +4.5522730322e+01 5.0824000000e+01 2.2600000000e+01 0.0000e+00 0.0000e+00
500000005  1    0    0    0    0 +0.0000000000e+00 +0.0000000000e+00 -4.5522730322e+01 4.9176000000e+01 1.8600000000e+01 0.0000e+00 0.0000e+00
</event>
<event>
 5      1 1.0000000e+00 -1.00000000e+00 -1.00000000e+00 -1.00000000e+00
       25 -1    0    0    0    0 +0.0000000000e+00 +0.0000000000e+00 +0.0000000000e+00 1.0000000000e+02 1.0000000000e+02 0.0000e+00 0.0000e+00
500000000  2    0    0    0    0 +0.0000000000e+00 +0.0000000000e+00 +4.3170768771e+01 5.5686172855e+01 3.5200000000e+01 0.0000e+00 0.0000e+00
500000001  1    0    0    0    0 +0.0000000000e+00 +0.0000000000e+00 -4.3170768771e+01 4.4313827145e+01 1.0000000000e+01 0.0000e+00 0.0000e+00
500000001  1    1    0    0    0 +1.5734506495e+00 -1.0222058009e+01 +5.5695635694e+00 1.5426803144e+01 1.0000000000e+01 0.0000e+00 0.0000e+00
500000001  1    1    0    0    0 -1.5734506495e+00 +1.0222058009e+01 +3.7601205202e+01 4.0259369711e+01 1.0000000000e+01 0.0000e+00 0.0000e+00
</event>
<event>
 5      1 1.0000000e+00 -1.00000000e+00 -1.00000000e+00 -1.00000000e+00
       25 -1    0    0    0    0 +0.0000000000e+00 +0.0000000000e+00 +0.0000000000e+00 1.0000000000e+02 1.0000000000e+02 0.0000e+00 0.0000e+00
500000004  1    0    0    0    0 +0.0000000000e+00 +0.0000000000e+00 +4.1142653310e+01 4.4828092993e+01 1.7800000000e+01 0.0000e+00 0.0000e+00
500000000  2    0    0    0    0 +0.0000000000e+00 +0.0000000000e+00 -4.1142653310e+01 5.5171907007e+01 3.6800000000e+01 0.0000e+00 0.0000e+00
500000003  1    2    0    0    0 +1.1638851604e+01 -5.6730827736e+00 -1.9830050218e+01 2.8304198037e+01 1.5500000000e+01 0.0000e+00 0.0000e+00
500000001  1    2    0    0    0 -1.1638851604e+01 +5.6730827736e+00 -2.1312603091e+01 2.6867708971e+01 1.0000000000e+01 0.0000e+00 0.0000e+00
</event>
<event>
 3      1 1.0000000e+00 -1.00000000e+00 -1.00000000e+00 -1.00000000e+00
       25 -1    0    0    0    0 +0.0000000000e+00 +0.0000000000e+00 +0.0000000000e+00 1.0000000000e+02 1.0000000000e+02 0.0000e+00 0.0000e+00
500000002  1    0    0    0    0 +0.0000000000e+00 +0.0000000000e+00 +4.8441801724e+01 5.0536800000e+01 1.4400000000e+01 0.0000e+00 0.0000e+00
500000001  1    0    0    0    0 +0.0000000000e+00 +0.0000000000e+00 -4.8441801724e+01 4.9463200000e+01 1.0000000000e+01 0.0000e+00 0.0000e+00
</event>
<event>
 3      1 1.0000000e+00 -1.00000000e+00 -1.00000000e+00 -1.00000000e+00
       25 -1    0    0    0    0 +0.0000000000e+00 +0.0000000000e+00 +0.0000000000e+00 1.0000000000e+02 1.0000000000e+02 0.0000e+00 0.0000e+00
500000002  1    0    0    0    0 +0.0000000000e+00 +0.0000000000e+00 +4.7881520444e+01 5.0000000000e+01 1.4400000000e+01 0.0000e+00 0.0000e+00
500000002  1    0    0    0    0 +0.0000000000e+00 +0.0000000000e+00 -4.7881520444e+01 5.0000000000e+01 1.4400000000e+01 0.0000e+00 0.0000e+00
</event>
<event>
 3      1 1.0000000e+00 -1.00000000e+00 -1.00000000e+00 -1.00000000e+00
       25 -1    0    0    0    0 +0.0000000000e+00 +0.0000000000e+00 +0.0000000000e+00 1.0000000000e+02 1.0000000000e+02 0.0000e+00 0.0000e+00
500000002  1    0    0    0    0 +0.0000000000e+00 +0.0000000000e+00 +4.8441801724e+01 5.0536800000e+01 1.4400000000e+01 0.0000e+00 0.0000e+00
500000001  1    0    0    0    0 +0.0000000000e+00 +0.0000000000e+00 -4.8441801724e+01 4.9463200000e+01 1.0000000000e+01 0.0000e+00 0.0000e+00
</event>
<event>
 3      1 1.0000000e+00 -1.00000000e+00 -1.00000000e+00 -1.00000000e+00
       25 -1    0    0    0    0 +0.0000000000e+00 +0.0000000000e+00 +0.0000000000e+00 1.0000000000e+02 1.0000000000e+02 0.0000e+00 0.0000e+00
500000002  1    0    0    0    0 +0.0000000000e+00 +0.0000000000e+00 +4.7309614739e+01 4.9452600000e+01 1.4400000000e+01 0.0000e+00 0.0000e+00
500000004  1    0    0    0    0 +0.0000000000e+00 +0.0000000000e+00 -4.7309614739e+01 5.0547400000e+01 1.7800000000e+01 0.0000e+00 0.0000e+00
</event>
<event>
 5      1 1.0000000e+00 -1.00000000e+00 -1.00000000e+00 -1.00000000e+00
       25 -1    0    0    0    0 +0.0000000000e+00 +0.0000000000e+00 +0.0000000000e+00 1.0000000000e+02 1.0000000000e+02 0.0000e+00 0.0000e+00
500000001  1    0    0    0    0 +0.0000000000e+00 +0.0000000000e+00 +3.2301038770e+01 3.3813563929e+01 1.0000000000e+01 0.0000e+00 0.0000e+00
500000000  2    0    0    0    0 +0.0000000000e+00 +0.0000000000e+00 -3.2301038770e+01 6.6186436071e+01 5.7800000000e+01 0.0000e+00 0.0000e+00
500000004  1    2    0    0    0 +6.7130910205e+00 +1.1718628586e+01 +5.9665934965e+00 2.3126436927e+01 1.7800000000e+01 0.0000e+00 0.0000e+00
500000002  1    2    0    0    0 -6.7130910205e+00 -1.1718628586e+01 -3.8267632266e+01 4.3059999144e+01 1.4400000000e+01 0.0000e+00 0.0000e+00
</event>
</LesHouchesEvents>
